15
Lattice="26.147684239928243 0.0 0.0 0.0 20.12292427392967 0.0 0.0 0.0 25.221718202369455" Properties=species:S:1:pos:R:3:forces:R:3:charge:R:1 =T label=0 uncertainty=0.0 iteration=110 energy=-2251.128262589 stress="0.0 0.0 0.0 0.0 0.0 0.0 0.0 0.0 0.0" pbc="T T T"
H       10.82780834      10.06365554      10.00005816       0.00283000       0.00150000       0.00294000       0.36000000
H       16.14765929      10.09243132      13.62313276      -0.00182000       0.00007000      -0.00413000       0.35000000
H       15.55931025      10.12289742      11.13221065       0.00322000      -0.00180000      -0.00008000       0.51000000
H        9.99997266      10.00819676      14.41368230      -0.00183000      -0.00274000       0.00082000       0.49000000
H       11.54271217      10.01254331      15.22171048       0.00243000       0.00322000       0.00384000       0.49000000
C       11.61880194      10.02882275      13.17020115      -0.00378000      -0.00005000       0.00324000       0.40000000
C       13.02065773      10.05021342      13.03788801       0.00103000       0.00127000      -0.00107000       0.06000000
C       13.51503200      10.07844589      11.73296676      -0.00085000       0.00022000      -0.00247000       0.35000000
C       11.48322619      10.06114017      10.86238871       0.00023000       0.00071000      -0.00109000       0.10000000
C       15.14147025      10.08186678      13.23774491      -0.00200000       0.00048000      -0.00012000       0.08000000
N       10.86666380      10.03498037      12.05595608       0.00152000       0.00082000       0.00115000      -0.54000000
N       12.79421878      10.08468399      10.60517763       0.00324000      -0.00042000      -0.00069000      -0.53000000
N       14.05364814      10.05272879      13.96629946      -0.00250000       0.00133000       0.00076000      -0.52000000
N       14.88663492      10.09870967      11.87915183       0.00110000      -0.00125000      -0.00125000      -0.65000000
N       11.00271020       9.99996648      14.37675770      -0.00282000      -0.00336000      -0.00185000      -0.95000000
15
Lattice="26.147684239928243 0.0 0.0 0.0 20.12292427392967 0.0 0.0 0.0 25.221718202369455" Properties=species:S:1:pos:R:3:forces:R:3 =T label=1 uncertainty=0.019388190699296086 iteration=110 energy=-2251.127904514793 pbc="T T T"
H       10.89584821      10.06690269       9.92713942      -0.00176183      -0.00008418       0.00136660
H       16.13221815      10.09101205      13.66020132      -0.00045595       0.00001330      -0.00015535
H       15.59456199      10.12230666      11.16189453      -0.00096332       0.00000176      -0.00008743
H       10.00693265      10.00800581      14.34039319       0.00080878       0.00005094       0.00303577
H       11.55339256      10.01598104      15.15271748       0.00203222       0.00000034       0.00075201
C       11.62703458      10.02878737      13.11731210      -0.00040143      -0.00001278       0.00084261
C       13.02362891      10.05119021      13.00079813      -0.00048397      -0.00002097       0.00038036
C       13.53905194      10.07942726      11.71823172      -0.00089528      -0.00002508       0.00030084
C       11.53437299      10.06340952      10.80611619      -0.00118065      -0.00005386       0.00100310
C       15.13621126      10.08133601      13.25334770      -0.00043312       0.00000323       0.00014586
N       10.88573314      10.03613830      11.98593394      -0.00087464      -0.00004251       0.00126201
N       12.84775730      10.08643411      10.57434721      -0.00137292      -0.00004448       0.00058560
N       14.03301996      10.05263243      13.96108785      -0.00031678      -0.00000345       0.00024292
N       14.91246668      10.09860548      11.89579952      -0.00082285      -0.00000455       0.00002476
N       10.99622021       9.99685541      14.31029763       0.00072290       0.00003017       0.00145712
15
Lattice="26.147684239928243 0.0 0.0 0.0 20.12292427392967 0.0 0.0 0.0 25.221718202369455" Properties=species:S:1:pos:R:3:forces:R:3 =T label=2 uncertainty=0.005399163151013441 iteration=110 energy=-2251.1283549451114 pbc="T T T"
H       10.96349779      10.07009090       9.86392480      -0.00073916       0.00000800       0.00122145
H       16.13929867      10.09016818      13.68590984       0.00226230       0.00004652      -0.00127371
H       15.64404738      10.12250264      11.17429969       0.00076563       0.00003917      -0.00140017
H        9.98241314      10.00696653      14.24859385      -0.00189645      -0.00003374      -0.00607630
H       11.50014816      10.01684663      15.10869057      -0.00699602      -0.00025048       0.00168133
C       11.63556200      10.02924881      13.06535833       0.00125408       0.00003992       0.00050078
C       13.03673987      10.05171565      12.98172150       0.00144491      -0.00001387       0.00069298
C       13.57921422      10.08053802      11.69804223       0.00083231       0.00000266       0.00001314
C       11.58056802      10.06544305      10.75494418       0.00061729       0.00002230       0.00037651
C       15.14660914      10.08100236      13.25885067       0.00224525       0.00003371      -0.00080787
N       10.91714774      10.03762450      11.92451749       0.00160677       0.00003153       0.00079303
N       12.89979142      10.08825846      10.54375505       0.00048888       0.00001504       0.00021643
N       14.03304456      10.05241864      13.95137274       0.00256043       0.00001496      -0.00022252
N       14.94405908      10.09896104      11.89521086       0.00106229       0.00002682      -0.00082961
N       10.98084760       9.99518051      14.24918357      -0.00191790       0.00012527      -0.00114583
15
Lattice="26.147684239928243 0.0 0.0 0.0 20.12292427392967 0.0 0.0 0.0 25.221718202369455" Properties=species:S:1:pos:R:3:forces:R:3 =T label=3 uncertainty=0.0085129021433981 iteration=110 energy=-2251.1159169618995 pbc="T T T"
H       10.97132550      10.07112887       9.86360735       0.01471623       0.00023055      -0.03293441
H       16.17709449      10.09063530      13.67599621      -0.03562122      -0.00090565       0.03379349
H       15.67269301      10.12329035      11.15669007       0.00771271      -0.00007581       0.02446622
H        9.94409654      10.00630816      14.11964954       0.01799990       0.00130828       0.06864357
H       11.37475875      10.01319114      15.12247492       0.09585953       0.00409394      -0.02729911
C       11.65988416      10.03001817      13.05544259      -0.01342295      -0.00053900      -0.02544604
C       13.06429786      10.05159244      12.98653271      -0.01809803      -0.00007753      -0.01675801
C       13.60608151      10.08090872      11.69160138      -0.00490771       0.00004812      -0.00673225
C       11.60444073      10.06635730      10.74491369      -0.00253405      -0.00010588      -0.01840926
C       15.18453681      10.08140965      13.24845878      -0.02699674      -0.00047552       0.01444264
N       10.95207236      10.03856524      11.91786513      -0.01389507      -0.00040349      -0.02195530
N       12.92257257      10.08906538      10.53694501      -0.00059792       0.00004261      -0.00926008
N       14.07301941      10.05248609      13.94519306      -0.03822180      -0.00053596      -0.00138478
N       14.97022857      10.09955003      11.88143496      -0.00648637      -0.00012046       0.01220918
N       10.94690039       9.99669304      14.21169950       0.02868341      -0.00235833      -0.00067959
15
Lattice="26.147684239928243 0.0 0.0 0.0 20.12292427392967 0.0 0.0 0.0 25.221718202369455" Properties=species:S:1:pos:R:3:forces:R:3 =T label=4 uncertainty=0.010846452790074736 iteration=110 energy=-2251.051736474529 pbc="T T T"
H       10.95136593      10.07080290       9.90885815       0.03072620       0.00074605      -0.09574215
H       16.22535055      10.09186948      13.62946723      -0.09320393      -0.00216069       0.10276585
H       15.66115856      10.12336070      11.12347181       0.04815108       0.00087752       0.06296084
H        9.92044683      10.00448915      14.02793248       0.01360923       0.00401061       0.19962852
H       11.24563893      10.00763420      15.15936925       0.23376377       0.01080796      -0.05471881
C       11.67774719      10.03074552      13.09083329      -0.04003726      -0.00162461      -0.08256190
C       13.08864372      10.05171926      13.00944053      -0.04667514      -0.00126649      -0.04704565
C       13.61230379      10.08084030      11.70107417       0.00122878       0.00003960      -0.03014709
C       11.60756530      10.06649258      10.77042392       0.00189710      -0.00016085      -0.06151924
C       15.22061474      10.08204800      13.22891002      -0.05294413      -0.00093976       0.03047294
N       10.97025540      10.03911006      11.94790544      -0.02982254      -0.00132455      -0.05851176
N       12.92311165      10.08899561      10.54978663       0.00344924       0.00033489      -0.03747877
N       14.12466725      10.05323038      13.94728807      -0.09011490      -0.00203005      -0.00813541
N       14.97856926      10.09969698      11.86501180      -0.00867190       0.00027009       0.02043271
N       10.90809576       9.99991054      14.21349402       0.06498678      -0.00648584      -0.00376416
15
Lattice="26.147684239928243 0.0 0.0 0.0 20.12292427392967 0.0 0.0 0.0 25.221718202369455" Properties=species:S:1:pos:R:3:forces:R:3 =T label=5 uncertainty=0.015947141937583037 iteration=110 energy=-2250.9495247209825 pbc="T T T"
H       10.93592838      10.07042742       9.95722707       0.07588792       0.00214528      -0.12265168
H       16.27245079      10.09295651      13.57754677      -0.08130870      -0.00136822       0.09846516
H       15.63675741      10.12291160      11.09168664       0.06583816       0.00164016       0.06339515
H        9.91385331      10.00246855      13.92630269      -0.07427268      -0.00078973       0.40765029
H       11.12748542      10.00217197      15.18676669       0.25212706       0.01090165      -0.01166663
C       11.69814009      10.03157068      13.13250540      -0.07899614      -0.00229721      -0.09056369
C       13.11226413      10.05236710      13.03321417      -0.05360545      -0.00157763      -0.07534590
C       13.61162686      10.08082294      11.71637866       0.01269007      -0.00008823      -0.05024468
C       11.60658654      10.06657463      10.80155610       0.02273101       0.00081515      -0.09296689
C       15.24729774      10.08252092      13.21359001      -0.06075142      -0.00124497       0.02479621
N       10.98544448      10.03978392      11.97744100      -0.05659664      -0.00094746      -0.10002017
N       12.92137878      10.08882674      10.56882720       0.02319877       0.00089547      -0.06949630
N       14.17012747      10.05425972      13.95141433      -0.09309050      -0.00231837      -0.02996665
N       14.98294865      10.09955676      11.85481153       0.00933436       0.00078109       0.00710905
N       10.87537485      10.00318829      14.21515536       0.04108597      -0.00640811       0.03405112
15
Lattice="26.147684239928243 0.0 0.0 0.0 20.12292427392967 0.0 0.0 0.0 25.221718202369455" Properties=species:S:1:pos:R:3:forces:R:3 =T label=6 uncertainty=0.015295208688623402 iteration=110 energy=-2250.7840787537457 pbc="T T T"
H       10.90932112      10.06967542       9.99983490       0.17420738       0.00549568      -0.21254005
H       16.30045898      10.09342439      13.54355750      -0.03166046      -0.00027042       0.08900394
H       15.61389259      10.12234015      11.06977758       0.10973545       0.00364450       0.03208771
H        9.94016942      10.00277818      13.78385567      -0.29716298      -0.01261283       0.86675696
H       11.04017755       9.99840220      15.19049824       0.18908316       0.00948579       0.02623661
C       11.72570420      10.03236909      13.16387799      -0.12664357      -0.00202448      -0.16624509
C       13.13086273      10.05291228      13.05948413      -0.08026580      -0.00175570      -0.13894046
C       13.60719462      10.08085377      11.73388381       0.03769967       0.00108619      -0.09637257
C       11.59858892      10.06628596      10.83390566       0.07815526       0.00288740      -0.15964219
C       15.26839581      10.08295404      13.20504770      -0.06357865      -0.00161173       0.03119469
N       11.00517458      10.04010735      12.01232711      -0.05920990       0.00130989      -0.20390158
N       12.91321882      10.08851351      10.59305306       0.10093915       0.00259623      -0.12900682
N       14.20236527      10.05506193      13.96193866      -0.12467616      -0.00261317      -0.06960343
N       14.97959878      10.09928459      11.85241135       0.05342090       0.00072375       0.01611400
N       10.86130649      10.00540406      14.20312619       0.06835590      -0.00546765       0.06531569
15
Lattice="26.147684239928243 0.0 0.0 0.0 20.12292427392967 0.0 0.0 0.0 25.221718202369455" Properties=species:S:1:pos:R:3:forces:R:3 =T label=7 uncertainty=0.008670128798131201 iteration=110 energy=-2250.4793587828867 pbc="T T T"
H       10.87706777      10.06865780      10.03917327       0.22336063       0.00706034      -0.28113293
H       16.30622949      10.09347183      13.52717158      -0.02632072       0.00094541       0.04031339
H       15.59360468      10.12166307      11.06392837       0.07133100       0.00666252      -0.03342130
H        9.99535477      10.00512272      13.62311101      -0.52131188      -0.02733133       1.76541176
H       11.00546919       9.99665329      15.18560979      -0.15319016       0.00737345      -0.07304414
C       11.74913565      10.03274216      13.19467991      -0.13397152      -0.00021985      -0.35482459
C       13.14572341      10.05323880      13.08519155      -0.08095384      -0.00443904      -0.15546389
C       13.60019931      10.08065149      11.75172830       0.09628103       0.00266808      -0.10777730
C       11.58407462      10.06575114      10.86344874       0.22531305       0.00425125      -0.24998555
C       15.28011324      10.08325120      13.19928293      -0.02678741      -0.00089447       0.05213500
N       11.01608277      10.03986366      12.05008504      -0.00141137       0.00263307      -0.32483525
N       12.89447021      10.08803262      10.61693638       0.24208495       0.00501089      -0.18770774
N       14.22541321      10.05554554      13.97482053      -0.12810735      -0.00426183      -0.04291211
N       14.96969321      10.09915143      11.84942983       0.07370082       0.00102739      -0.00800702
N       10.84861300      10.00641064      14.19102823       0.14109747      -0.00041434      -0.04075367
15
Lattice="26.147684239928243 0.0 0.0 0.0 20.12292427392967 0.0 0.0 0.0 25.221718202369455" Properties=species:S:1:pos:R:3:forces:R:3 =T label=8 uncertainty=0.004502648200477608 iteration=110 energy=-2249.9621101934786 pbc="T T T"
H       10.85514628      10.06796540      10.06676733       0.18540914       0.00582733      -0.21691703
H       16.30882679      10.09337716      13.52323444      -0.06608655       0.00200473       0.03069821
H       15.58663171      10.12100493      11.06722450       0.04275304       0.00836629       0.00610982
H       10.04658213      10.00780872      13.44943334      -0.40420430      -0.03906067       2.82810846
H       11.02063354       9.99592651      15.19282633      -0.52028833       0.00694336      -0.32538331
C       11.76228353      10.03276464      13.22957896      -0.03864114       0.00235864      -0.62043726
C       13.15366283      10.05367858      13.10045416      -0.03659917      -0.00531786      -0.15757418
C       13.59073233      10.08039077      11.76230564       0.11071249      -0.00037424      -0.11649052
C       11.56190883      10.06533457      10.88801312       0.32115336       0.00473868      -0.30485509
C       15.28273868      10.08333878      13.19415927      -0.04652128      -0.00094717       0.02263883
N       11.01620097      10.03960690      12.08200676       0.09548650       0.00401322      -0.50735820
N       12.87066747      10.08754091      10.63537698       0.35134170       0.00742758      -0.19539774
N       14.23798212      10.05596700      13.97901616      -0.05933643      -0.00605381      -0.00503628
N       14.96245814      10.09904995      11.85022891       0.08851384       0.00230281      -0.01314801
N       10.83474785      10.00644757      14.19507776      -0.02912443       0.00766271      -0.41555559
15
Lattice="26.147684239928243 0.0 0.0 0.0 20.12292427392967 0.0 0.0 0.0 25.221718202369455" Properties=species:S:1:pos:R:3:forces:R:3 =T label=9 uncertainty=0.004303897770593665 iteration=110 energy=-2249.3301378650876 pbc="T T T"
H       10.84352857      10.06760078      10.08035702       0.11451924       0.00366950      -0.10367427
H       16.31297568      10.09324965      13.52130768      -0.01691845       0.00005910       0.02967638
H       15.58395190      10.12047599      11.06683486       0.06529210       0.00139955       0.03866204
H       10.07191843      10.01025760      13.27193735      -0.16801897      -0.03660147       2.53884734
H       11.05329252       9.99548691      15.21325322      -0.50245300      -0.00013143      -0.36410926
C       11.76469760      10.03261809      13.26851452       0.04943694       0.00730803      -0.57465410
C       13.15595765      10.05401605      13.11033654      -0.05507081      -0.00032515      -0.08873503
C       13.58379218      10.08041601      11.76961467       0.04985244       0.00114102      -0.13079865
C       11.54176510      10.06503832      10.90713107       0.22163318       0.00617257      -0.18572476
C       15.28566090      10.08339805      13.19274342      -0.02652331       0.00029231      -0.01136407
N       11.01020445      10.03935741      12.11384363       0.15463401       0.00712600      -0.50650115
N       12.84862759      10.08707613      10.64762958       0.29265828       0.00579630      -0.12632690
N       14.24169845      10.05634980      13.97932995      -0.01619614      -0.00103194      -0.01688678
N       14.95690796      10.09890510      11.85105109       0.06413997       0.00060625       0.00982798
N       10.83659683      10.00596422      14.22117370      -0.20665375       0.00512975      -0.54367160
15
Lattice="26.147684239928243 0.0 0.0 0.0 20.12292427392967 0.0 0.0 0.0 25.221718202369455" Properties=species:S:1:pos:R:3:forces:R:3 =T label=10 uncertainty=0.002105369981830784 iteration=110 energy=-2249.024010900435 pbc="T T T"
H       10.83562976      10.06734858      10.08750349       0.00012430       0.00001913      -0.00014062
H       16.31414542      10.09324290      13.51925606       0.00005707      -0.00004713      -0.00005871
H       15.57944653      10.12037269      11.06416375       0.00006857      -0.00012016      -0.00001259
H       10.08351798      10.01278172      13.09659092       0.00002308      -0.00006394      -0.00015573
H       11.08798782       9.99548928      15.23839394      -0.00008585      -0.00012120      -0.00011651
C       11.76128195      10.03211602      13.30819475       0.00001601       0.00005111      -0.00009100
C       13.15976399      10.05404490      13.11645967       0.00003045       0.00011288      -0.00003883
C       13.58035550      10.08033953      11.77864699       0.00005951       0.00004291      -0.00003483
C       11.52646790      10.06461375      10.91994584       0.00009086       0.00003204      -0.00010677
C       15.28749385      10.08337760      13.19352742       0.00004471      -0.00000298      -0.00002363
N       10.99952591      10.03886915      12.14881641       0.00006221       0.00006839      -0.00012022
N       12.82842425      10.08667794      10.65634811       0.00010063       0.00003375      -0.00005904
N       14.24281797      10.05642594      13.98049565       0.00003235       0.00008782      -0.00002755
N       14.95248284      10.09886266      11.85037105       0.00005641      -0.00001153      -0.00001987
N       10.85087259      10.00560652      14.25871712      -0.00002868      -0.00006242      -0.00012885
15
Lattice="26.147684239928243 0.0 0.0 0.0 20.12292427392967 0.0 0.0 0.0 25.221718202369455" Properties=species:S:1:pos:R:3:forces:R:3 =T label=11 uncertainty=0.0044346104414876835 iteration=110 energy=-2249.2234305733627 pbc="T T T"
H       10.82929266      10.06721292      10.09028242      -0.08772276      -0.00186256       0.03837885
H       16.31579731      10.09342163      13.51851315       0.02297681       0.00243716      -0.01034882
H       15.57481529      10.12071421      11.06347442      -0.06413841       0.00462999      -0.00954950
H       10.08951073      10.01500038      12.95218388       0.08304307       0.03069807      -2.00187778
H       11.11913429       9.99590553      15.26261977       0.43168772       0.00566470       0.33571760
C       11.75559849      10.03131091      13.34053069      -0.07878550      -0.01111582       0.44812876
C       13.16272348      10.05365307      13.12097188       0.04103165      -0.00533550       0.06252708
C       13.57755736      10.08010293      11.78726587      -0.03874787      -0.00324150       0.11944767
C       11.51598173      10.06413455      10.92685461      -0.14524878      -0.00661328       0.09565293
C       15.28821617      10.08330656      13.19319868       0.01005793      -0.00098728      -0.00458523
N       10.99107714      10.03830150      12.17343285      -0.11700687      -0.00780924       0.34103838
N       12.81396889      10.08636423      10.66341622      -0.20025491      -0.00431917       0.09792838
N       14.24374925      10.05622613      13.98258083       0.01294522      -0.00269314       0.02887945
N       14.94924199      10.09884846      11.85024580      -0.04487530      -0.00020799      -0.00174123
N       10.86347874      10.00566778      14.29197863       0.17469199       0.00079595       0.46094117
15
Lattice="26.147684239928243 0.0 0.0 0.0 20.12292427392967 0.0 0.0 0.0 25.221718202369455" Properties=species:S:1:pos:R:3:forces:R:3 =T label=12 uncertainty=0.008273857606597008 iteration=110 energy=-2249.648540150564 pbc="T T T"
H       10.82143077      10.06710941      10.09516756      -0.13105322      -0.00171188       0.08143833
H       16.31984379      10.09367618      13.51732196       0.06756503       0.00421668      -0.01992589
H       15.57085373      10.12107897      11.06437116      -0.06601105       0.00600686       0.01498148
H       10.08637787      10.01709907      12.80725513      -0.05248208       0.03496283      -2.41767274
H       11.15587485       9.99632710      15.28898996       0.61293704       0.00695354       0.43978404
C       11.74833095      10.03056864      13.37175521      -0.12125807      -0.01234618       0.52072026
C       13.16242412      10.05303054      13.12801425      -0.00504340      -0.01031507       0.11749569
C       13.57137570      10.07989162      11.79578599      -0.10312793      -0.00349682       0.14210017
C       11.50690521      10.06383760      10.93306389      -0.15125106      -0.00492640       0.10344176
C       15.28949544      10.08327486      13.19216023       0.02138500      -0.00053023      -0.01732700
N       10.99043428      10.03778328      12.18969649      -0.01051215      -0.00859913       0.27103715
N       12.80088830      10.08597768      10.67109179      -0.21803805      -0.00642548       0.12796955
N       14.24561520      10.05604161      13.98396931       0.03116245      -0.00302123       0.02312784
N       14.94563364      10.09871876      11.85132186      -0.06016544      -0.00217357       0.01796989
N       10.87516066      10.00577421      14.32670777       0.19483493       0.00173574       0.57920950
15
Lattice="26.147684239928243 0.0 0.0 0.0 20.12292427392967 0.0 0.0 0.0 25.221718202369455" Properties=species:S:1:pos:R:3:forces:R:3 =T label=13 uncertainty=0.00904266758766203 iteration=110 energy=-2250.0468236607862 pbc="T T T"
H       10.81071345      10.06700500      10.10683414      -0.13741451      -0.00132966       0.14969030
H       16.32314641      10.09398815      13.51497039       0.04231297       0.00398492      -0.03017752
H       15.56850467      10.12141139      11.06601660      -0.03008773       0.00422120       0.02112625
H       10.06653336      10.01894185      12.66542812      -0.25488332       0.02361465      -1.81964916
H       11.20498222       9.99675328      15.31438355       0.63033816       0.00542701       0.32561038
C       11.73929881      10.02998701      13.39914226      -0.11592939      -0.00744142       0.35116088
C       13.15746818      10.05231225      13.13783069      -0.06364736      -0.00917270       0.12593374
C       13.56202304      10.07956291      11.80380894      -0.11995250      -0.00420652       0.10291020
C       11.50227667      10.06382068      10.93805500      -0.05915352      -0.00020027       0.06391284
C       15.29021796      10.08327270      13.19166360       0.00924705      -0.00002982      -0.00634999
N       10.99836022      10.03740700      12.19771580       0.10177845      -0.00479902       0.10266115
N       12.79159883      10.08564264      10.67628375      -0.11894828      -0.00427913       0.06645823
N       14.24773752      10.05580107      13.98475986       0.02719122      -0.00305837       0.01016568
N       14.94044056      10.09849391      11.85377763      -0.06662593      -0.00288863       0.03151704
N       10.88837931      10.00582345      14.36419369       0.16961632       0.00060712       0.48088384
15
Lattice="26.147684239928243 0.0 0.0 0.0 20.12292427392967 0.0 0.0 0.0 25.221718202369455" Properties=species:S:1:pos:R:3:forces:R:3 =T label=14 uncertainty=0.010249036359681593 iteration=110 energy=-2250.3344557906466 pbc="T T T"
H       10.80121236      10.06691962      10.12219266      -0.07836873      -0.00069737       0.12697552
H       16.32054317      10.09426017      13.51414630      -0.02170129       0.00224096      -0.00668089
H       15.56470546      10.12175752      11.06704237      -0.03151309       0.00284963       0.00850249
H       10.03642746      10.02063189      12.53060822      -0.24935670       0.01398573      -1.11656477
H       11.27456843       9.99746648      15.33540111       0.57689097       0.00590098       0.17384980
C       11.72684543      10.02943913      13.41950278      -0.10326698      -0.00453044       0.16831568
C       13.14950317      10.05171242      13.14717891      -0.06600560      -0.00494650       0.07731718
C       13.55408902      10.07895212      11.81088274      -0.06557805      -0.00505416       0.05852624
C       11.50401797      10.06382305      10.94297927       0.01463001       0.00002347       0.04070425
C       15.28800116      10.08320410      13.19257554      -0.01843969      -0.00057276       0.00763934
N       11.00280585      10.03718415      12.20062186       0.03655948      -0.00183181       0.02381947
N       12.78860140      10.08555924      10.67715898      -0.02460094      -0.00067753       0.00714877
N       14.24565353      10.05531192      13.98778097      -0.01747843      -0.00404458       0.02507688
N       14.93377643      10.09837555      11.85613582      -0.05514964      -0.00097777       0.01954052
N       10.90473514      10.00574267      14.40402129       0.13551822      -0.00068240       0.32978154
15
Lattice="26.147684239928243 0.0 0.0 0.0 20.12292427392967 0.0 0.0 0.0 25.221718202369455" Properties=species:S:1:pos:R:3:forces:R:3 =T label=15 uncertainty=0.013223002559188696 iteration=110 energy=-2250.5079866014567 pbc="T T T"
H       10.80208867      10.06696793      10.12927913       0.00412336       0.00021779       0.03061440
H       16.31123363      10.09425060      13.52099745      -0.04088260      -0.00005531       0.03029673
H       15.55729017      10.12198969      11.06900060      -0.03236342       0.00100664       0.00874167
H       10.00795603      10.02219574      12.41071073      -0.12450570       0.00684042      -0.52442807
H       11.37304433       9.99863608      15.34888454       0.43169289       0.00512187       0.05864589
C       11.70942847      10.02897421      13.42610565      -0.07628594      -0.00202686       0.02841630
C       13.13957517      10.05132711      13.15127067      -0.04351165      -0.00167716       0.01768001
C       13.55052734      10.07849529      11.81475846      -0.01545490      -0.00198336       0.01681678
C       11.50927287      10.06373815      10.94742863       0.02307120      -0.00036519       0.01926509
C       15.28094418      10.08295869      13.19865216      -0.03103559      -0.00107932       0.02679308
N       10.99201594      10.03711660      12.19552032      -0.04746277      -0.00028795      -0.02264845
N       12.78979347      10.08559968      10.67737240       0.00532255       0.00018018       0.00087347
N       14.23172223      10.05470462      13.99205262      -0.06133096      -0.00265334       0.01864614
N       14.92798264      10.09838922      11.85927709      -0.02528339       0.00005989       0.01384792
N       10.92612891      10.00540493      14.44334499       0.09383421      -0.00148746       0.17193551
15
Lattice="26.147684239928243 0.0 0.0 0.0 20.12292427392967 0.0 0.0 0.0 25.221718202369455" Properties=species:S:1:pos:R:3:forces:R:3 =T label=16 uncertainty=0.019769744024453674 iteration=110 energy=-2250.5932932577657 pbc="T T T"
H       10.80140295      10.06683404      10.12740882      -0.00140540      -0.00023925      -0.00344285
H       16.29393597      10.09374236      13.54021280      -0.03046224      -0.00089965       0.03389040