30
Lattice="32.03834340028648 0.0 0.0 0.0 21.74882284697253 0.0 0.0 0.0 25.464471977436453" Properties=species:S:1:pos:R:3:forces:R:3:charge:R:1 =T label=0 uncertainty=0.0 iteration=55 energy=-4568.715881509 stress="0.0 0.0 0.0 0.0 0.0 0.0 0.0 0.0 0.0" pbc="T T T"
H       16.73907328      10.88898313      10.24374593       0.00822000      -0.00001000       0.00304000       0.36000000
H       22.03834343      10.96247241      13.90462028      -0.00026000       0.00049000       0.00267000       0.35000000
H       21.46274255      10.95490382      11.40902563       0.00370000      -0.00023000       0.00212000       0.51000000
H       15.86884779      10.87954415      14.67754340       0.00097000       0.00042000       0.00366000       0.47000000
H       17.43686840      10.90068400      15.46447197       0.00011000       0.00020000       0.00181000       0.49000000
H       11.38075646      10.87310649      10.26966876      -0.00202000      -0.00018000      -0.00317000       0.51000000
H       14.92378074      10.86638611      12.28520718       0.00471000      -0.00054000      -0.00417000       0.46000000
H       10.09925476      10.88295871      12.25172140       0.00130000      -0.00042000       0.00273000       0.33000000
H       11.34295121      10.00000000      15.44820018      -0.00035000      -0.00267000       0.00017000       0.30000000
H       11.36291110      11.74882285      15.45227449      -0.00161000       0.00200000      -0.00104000       0.30000000
H        9.99999997      10.89148425      14.71515442      -0.00240000      -0.00065000      -0.00812000       0.27000000
C       17.50962747      10.90022728      13.43553924      -0.00064000       0.00057000      -0.00279000       0.40000000
C       18.91470106      10.91943149      13.30080672      -0.00116000      -0.00047000      -0.00003000       0.07000000
C       19.41731859      10.92623887      12.00036160      -0.00406000      -0.00042000      -0.00260000       0.35000000
C       17.39758939      10.89816114      11.10401219       0.00563000      -0.00018000       0.00033000       0.11000000
C       21.03442194      10.94872715      13.51396981      -0.00543000      -0.00063000      -0.00085000       0.08000000
C       11.17622367      10.87682554      12.34359722       0.00736000       0.00024000       0.00330000      -0.11000000
C       11.79940149      10.87415044      13.54047833      -0.00227000      -0.00031000       0.00463000      -0.07000000
C       13.26393824      10.86666884      13.54524019      -0.00159000      -0.00096000      -0.00356000       0.61000000
C       13.25682573      10.86488544      11.06584094      -0.00085000       0.00048000       0.00329000       0.79000000
C       11.07969214      10.87891343      14.85831568      -0.00243000       0.00166000       0.00545000      -0.82000000
N       16.77505234      10.88957035      12.29918718      -0.00047000      -0.00039000      -0.00368000      -0.54000000
N       18.70754113      10.91638665      10.86253260      -0.00230000       0.00046000      -0.00862000      -0.53000000
N       19.94133774      10.93363347      14.23504727       0.00285000       0.00071000       0.00204000      -0.51000000
N       20.78708593      10.94511685      12.15365772      -0.00288000       0.00080000      -0.00015000      -0.65000000
N       16.88484774      10.89246295      14.62635981      -0.00345000      -0.00094000       0.00234000      -0.91000000
N       11.86648978      10.87193206      11.15066310      -0.00306000      -0.00097000       0.00036000      -0.67000000
N       13.88240643      10.86429822      12.29773570       0.00184000       0.00038000       0.00070000      -0.63000000
O       13.93905022      10.86297154      14.57481972       0.00448000       0.00141000      -0.00156000      -0.65000000
O       13.84466526      10.85988321      10.00000000      -0.00394000       0.00015000       0.00170000      -0.66000000
30
Lattice="32.03834340028648 0.0 0.0 0.0 21.74882284697253 0.0 0.0 0.0 25.464471977436453" Properties=species:S:1:pos:R:3:forces:R:3 =T label=1 uncertainty=0.008473814385073079 iteration=55 energy=-4568.716572418961 pbc="T T T"
H       16.73903488      10.89029991      10.21225517      -0.00003700       0.00042027      -0.01004616
H       22.00755981      10.96067920      13.92633517      -0.00987098      -0.00057463       0.00687367
H       21.45276980      10.95424904      11.42086905      -0.00326019      -0.00020985       0.00377786
H       15.83280184      10.87880603      14.63918095      -0.01170719      -0.00023634      -0.01220339
H       17.39612127      10.89925858      15.44632578      -0.01319762      -0.00045839      -0.00585495
H       11.35261593      10.87498061      10.26872596      -0.00884393       0.00059798      -0.00016702
H       14.91279463      10.86735011      12.28001830      -0.00349230       0.00031212      -0.00179186
H       10.08420958      10.88359041      12.26306895      -0.00473997       0.00020210       0.00367592
H       11.35249364       9.99935984      15.45679031       0.00303411      -0.00019338       0.00275569
H       11.37139362      11.74976016      15.46079576       0.00269816       0.00028838       0.00273535
H        9.99722824      10.89091349      14.73195186      -0.00079378      -0.00018131       0.00535455
C       17.48344523      10.89969043      13.41553213      -0.00841347      -0.00017256      -0.00640495
C       18.89039981      10.91860842      13.28762556      -0.00782092      -0.00026351      -0.00414931
C       19.39881140      10.92586201      11.99712806      -0.00590882      -0.00012012      -0.00105127
C       17.38667111      10.89878702      11.08297949      -0.00344210       0.00020054      -0.00675726
C       21.00398772      10.94722211      13.52339525      -0.00973585      -0.00048069       0.00299715
C       11.16286012      10.87770454      12.35184845      -0.00422702       0.00028014       0.00264195
C       11.79416411      10.87460711      13.54221740      -0.00164230       0.00014650       0.00060289
C       13.25502905      10.86700995      13.54371975      -0.00277778       0.00011175      -0.00047212
C       13.23574920      10.86697903      11.07229116      -0.00663789       0.00066855       0.00197334
C       11.07801970      10.87899273      14.87203801      -0.00045527       0.00002367       0.00434447
N       16.76007196      10.88981090      12.27093330      -0.00481597       0.00007663      -0.00906398
N       18.70060185      10.91684212      10.85016385      -0.00219867       0.00014490      -0.00393378
N       19.90038983      10.93203322      14.23314490      -0.01305678      -0.00051154      -0.00058901
N       20.76781971      10.94439012      12.15442469      -0.00618917      -0.00023362       0.00029569
N       16.84818040      10.89135745      14.60397412      -0.01178817      -0.00035253      -0.00725718
N       11.84555684      10.87338683      11.14874441      -0.00658372       0.00046484      -0.00049394
N       13.87259919      10.86558127      12.29773770      -0.00312976       0.00041135      -0.00003006
O       13.93485140      10.86256720      14.57123622      -0.00138099      -0.00012803      -0.00107182
O       13.82685786      10.86296620       9.99978302      -0.00570683       0.00098522      -0.00009826
30
Lattice="32.03834340028648 0.0 0.0 0.0 21.74882284697253 0.0 0.0 0.0 25.464471977436453" Properties=species:S:1:pos:R:3:forces:R:3 =T label=2 uncertainty=0.010658106433404996 iteration=55 energy=-4568.7165415986365 pbc="T T T"
H       16.73709626      10.89148913      10.18370130       0.00138958      -0.00050991       0.01168274
H       21.97535609      10.95888803      13.94151064       0.01620653       0.00084749      -0.00389838
H       21.43761677      10.95357548      11.43160263       0.00941742       0.00033256      -0.00423830
H       15.78571240      10.87810525      14.60714747       0.02547343       0.00028920       0.01227463
H       17.34515342      10.89771994      15.42528987       0.02898333       0.00078429       0.01145293
H       11.33737623      10.87665993      10.27745129       0.00104048      -0.00070541      -0.00829407
H       14.90603009      10.86855521      12.26504365       0.00157618      -0.00068780       0.01132224
H       10.07574343      10.88418206      12.27745210       0.00065281      -0.00025467      -0.00809286
H       11.36035546       9.99948812      15.46557573      -0.00306248      -0.00028602      -0.00419358
H       11.37842907      11.74988886      15.46960321      -0.00276021       0.00020003      -0.00422936
H       10.00153177      10.89043659      14.74619080      -0.00522919       0.00019423      -0.00529619
C       17.45482401      10.89912524      13.39602602       0.01464848       0.00026905       0.00990730
C       18.86364061      10.91778950      13.27946062       0.01426905       0.00039770       0.00165901
C       19.38169921      10.92551594      11.99263526       0.00846096       0.00017100       0.00241413
C       17.37953023      10.89940038      11.06068496       0.00220949      -0.00027558       0.01170373
C       20.97443096      10.94580801      13.53105551       0.01373917       0.00064380      -0.00304591
C       11.15461167      10.87847409      12.36062806       0.00070151      -0.00031689      -0.00495176
C       11.79103555      10.87507009      13.54765732       0.00038722      -0.00021958      -0.00467276
C       13.25063067      10.86750927      13.54317681       0.00100885      -0.00029656      -0.00041283
C       13.22194062      10.86892369      11.07224615       0.00368339      -0.00086958       0.00253596
C       11.08235517      10.87899649      14.88226208      -0.00503579       0.00000757      -0.00329172
N       16.74440415      10.89001279      12.24215482       0.00837459      -0.00006731       0.01360414
N       18.69570141      10.91724038      10.83871344       0.00144943      -0.00017127       0.00545197
N       19.86482458      10.93055311      14.23317407       0.01433298       0.00063632      -0.00066404
N       20.74770798      10.94363861      12.15955159       0.00981198       0.00035595      -0.00536380
N       16.80666283      10.89032522      14.57630084       0.02359701       0.00048670       0.01505655
N       11.83323593      10.87471328      11.15544611       0.00192817      -0.00055622      -0.00671529
N       13.86470991      10.86688962      12.29590034       0.00218711      -0.00064791       0.00171893
O       13.92854051      10.86232347      14.57316019       0.00348889       0.00001964      -0.00331465
O       13.80935333      10.86586085       9.99707686       0.00793206      -0.00130182       0.00290045
30
Lattice="32.03834340028648 0.0 0.0 0.0 21.74882284697253 0.0 0.0 0.0 25.464471977436453" Properties=species:S:1:pos:R:3:forces:R:3 =T label=3 uncertainty=0.01561161828750373 iteration=55 energy=-4568.7040792954995 pbc="T T T"
H       16.73431564      10.89250953      10.16023916       0.00112852      -0.00048484       0.01019487
H       21.94303155      10.95719567      13.94946451       0.01519166       0.00078839      -0.00410714
H       21.41890271      10.95291197      11.44012768       0.00842951       0.00030888      -0.00390228
H       15.73488023      10.87752464      14.58248653       0.02006377       0.00025592       0.01171657
H       17.28753262      10.89615696      15.40250902       0.02669656       0.00072482       0.01089664
H       11.33497966      10.87807283      10.29381725       0.00105380      -0.00066927      -0.00654872
H       14.90289509      10.86992260      12.24260687       0.00293618      -0.00067938       0.00803242
H       10.07427196      10.88469188      12.29356289       0.00042704      -0.00023153      -0.00678510
H       11.36649812      10.00005299      15.47395242      -0.00326102      -0.00015104      -0.00366164
H       11.38396397      11.74949785      15.47805020      -0.00295875       0.00008024      -0.00368920
H       10.01182507      10.89004736      14.75684081      -0.00440594       0.00019560      -0.00479338
C       17.42560563      10.89858759      13.37633656       0.01355578       0.00024233       0.01017316
C       18.83525158      10.91699616      13.27603848       0.01437118       0.00038327       0.00200156
C       19.36487819      10.92517570      11.98780233       0.00947939       0.00018335       0.00154524
C       17.37509515      10.89995179      11.03740110       0.00422015      -0.00023609       0.01089937
C       20.94698519      10.94452145      13.53714848       0.01352222       0.00061101      -0.00334824
C       11.15302685      10.87910913      12.37046152      -0.00008345      -0.00029709      -0.00467986
C       11.79017543      10.87550867      13.55687721      -0.00117110      -0.00018937      -0.00394206
C       13.24859194      10.86809880      13.54394715       0.00055534      -0.00025982      -0.00069941
C       13.21444678      10.87066214      11.06728103       0.00318995      -0.00083374       0.00100674
C       11.09225371      10.87898172      14.88891905      -0.00469752       0.00001211      -0.00300121
N       16.72777903      10.89014905      12.21498300       0.00921588      -0.00006178       0.01239224
N       18.69278454      10.91758335      10.82781043       0.00361263      -0.00013232       0.00419735
N       19.83610460      10.92927955      14.23449351       0.01526728       0.00061894       0.00017311
N       20.72813506      10.94292797      12.17008855       0.00991487       0.00034401      -0.00459242
N       16.75976263      10.88935349      14.54631939       0.02035933       0.00043259       0.01318918
N       11.82917496      10.87582758      11.16870364       0.00120157      -0.00052319      -0.00536429
N       13.86026284      10.86818115      12.29251682       0.00180489      -0.00063963       0.00150751
O       13.92157619      10.86227949      14.57967499       0.00165073       0.00002286      -0.00140156
O       13.79348565      10.86846303       9.99139271       0.00660891      -0.00124680       0.00282353
30
Lattice="32.03834340028648 0.0 0.0 0.0 21.74882284697253 0.0 0.0 0.0 25.464471977436453" Properties=species:S:1:pos:R:3:forces:R:3 =T label=4 uncertainty=0.014799079617335384 iteration=55 energy=-4568.69533569621 pbc="T T T"
H       16.73181780      10.89358239      10.13759309       0.00599059      -0.00065698       0.01582456
H       21.90936639      10.95544707      13.95839008       0.02529431       0.00112681      -0.00920689
H       21.40011991      10.95222660      11.44874555       0.01328031       0.00044876      -0.00662794
H       15.68971738      10.87695667      14.55664693       0.02332583       0.00040555       0.01976465
H       17.22810660      10.89454607      15.37831445       0.03114078       0.00090438       0.01191404
H       11.33281812      10.87955297      10.30868036       0.00312189      -0.00097284      -0.00357134
H       14.89658880      10.87142453      12.22422453      -0.00277614      -0.00113505       0.00420452
H       10.07335011      10.88520616      12.30877826      -0.00113712      -0.00027440      -0.00749599
H       11.37363308      10.00041042      15.48211998      -0.00689192      -0.00005747      -0.00452533
H       11.39043450      11.74929817      15.48628048      -0.00638448      -0.00001659      -0.00454795
H       10.02174707      10.88961702      14.76747328      -0.00562763       0.00033089      -0.00530286
C       17.39552983      10.89804899      13.35385913       0.02132258       0.00033669       0.01183680
C       18.80353013      10.91614810      13.27174619       0.02254161       0.00056617       0.00596582
C       19.34409073      10.92477260      11.98427217       0.01601639       0.00030302       0.00308002
C       17.36615467      10.90047872      11.01315396       0.01223182      -0.00028813       0.01260086
C       20.91714901      10.94316879      13.54448343       0.02324992       0.00089742      -0.00502688
C       11.15316044      10.87976675      12.38087063      -0.00108903      -0.00041336      -0.00510612
C       11.79254207      10.87593150      13.56575276      -0.00412519      -0.00022791      -0.00375499
C       13.24726871      10.86867932      13.54547676      -0.00344856      -0.00033377       0.00051952
C       13.20738563      10.87250587      11.06475375       0.00178164      -0.00124505      -0.00241074
C       11.10275105      10.87895584      14.89554150      -0.00595387       0.00003990      -0.00483047
N       16.70755061      10.89028501      12.18743675       0.01644596      -0.00013665       0.01483226
N       18.68522717      10.91788192      10.81836096       0.01268739      -0.00007153       0.00629183
N       19.80265182      10.92791312      14.23424769       0.02734711       0.00095360       0.00120670
N       20.70628538      10.94216728      12.18045493       0.01669876       0.00052374      -0.00332929
N       16.71415356      10.88838951      14.51685827       0.02217877       0.00053050       0.01419478
N       11.82651051      10.87698521      11.18083892       0.00165690      -0.00076436      -0.00424716
N       13.85626002      10.86959411      12.28912236      -0.00034760      -0.00099782       0.00095283
O       13.91759480      10.86223212      14.58316242      -0.00291958       0.00007090       0.00249544
O       13.77868091      10.87122082       9.98506704       0.00572069      -0.00184766       0.00025494
30
Lattice="32.03834340028648 0.0 0.0 0.0 21.74882284697253 0.0 0.0 0.0 25.464471977436453" Properties=species:S:1:pos:R:3:forces:R:3 =T label=5 uncertainty=0.012470376427990374 iteration=55 energy=-4568.669769619823 pbc="T T T"
H       16.72262052      10.89465874      10.11196866       0.03148932      -0.00127802       0.03965327
H       21.86859832      10.95361124      13.97306940       0.06725626       0.00249237      -0.02747445
H       21.37869484      10.95149665      11.45944304       0.03742152       0.00103965      -0.01423031
H       15.65136927      10.87630077      14.52473492       0.05634139       0.00100051       0.04593484
H       17.17661636      10.89305795      15.35845021       0.05827652       0.00172439       0.01538125
H       11.32781045      10.88113836      10.31502691       0.00237394      -0.00209604      -0.00510494
H       14.90009374      10.87325443      12.21677149      -0.05391290      -0.00319933       0.00940534
H       10.07496767      10.88566018      12.32117814      -0.00473596      -0.00039648      -0.01554885
H       11.38462726      10.00051154      15.48955715      -0.02049951      -0.00131005      -0.00934464
H       11.40060827      11.74932109      15.49375581      -0.01926160       0.00125519      -0.00935741
H       10.03090775      10.88908263      14.77631329      -0.01741205       0.00084046      -0.00785258
C       17.36104691      10.89749963      13.33421148       0.05781317       0.00074562       0.01734277
C       18.76698968      10.91522709      13.26234476       0.05488324       0.00129868       0.02036504
C       19.31821850      10.92428277      11.97941565       0.04126121       0.00078973       0.01217962
C       17.34680454      10.90095280      10.99230349       0.03986904      -0.00054547       0.02243561
C       20.87969958      10.94170869      13.55268693       0.06308194       0.00207197      -0.00850874
C       11.15483486      10.88044245      12.38936844      -0.00219001      -0.00081906      -0.00872131
C       11.79905077      10.87630677      13.57203445      -0.01392162      -0.00044693      -0.00370751
C       13.25239406      10.86922538      13.54483504      -0.02135956      -0.00079069       0.00942300
C       13.20408764      10.87453035      11.06835056      -0.01378591      -0.00283421      -0.00933695
C       11.11248818      10.87889312      14.90337334      -0.01601507       0.00013529      -0.00939205
N       16.68109568      10.89050223      12.16294228       0.04886087      -0.00039988       0.02757540
N       18.66527336      10.91801086      10.80820820       0.04056640       0.00011391       0.01520766
N       19.75859485      10.92636495      14.23234092       0.06981684       0.00218410       0.00432170
N       20.67933304      10.94131701      12.18617483       0.04297459       0.00126355      -0.00520650
N       16.67742144      10.88751675      14.49325615       0.05039364       0.00111516       0.02442696
N       11.82377318      10.87823016      11.18806834      -0.00243365      -0.00164184      -0.00650196
N       13.85641776      10.87121168      12.28745144      -0.02392525      -0.00234471       0.00068344
O       13.92185167      10.86211937      14.57943860      -0.01431988       0.00013968       0.00048541
O       13.76895973      10.87422645       9.98421972       0.00395236      -0.00426605      -0.00830780
30
Lattice="32.03834340028648 0.0 0.0 0.0 21.74882284697253 0.0 0.0 0.0 25.464471977436453" Properties=species:S:1:pos:R:3:forces:R:3 =T label=6 uncertainty=0.003749948596768775 iteration=55 energy=-4568.633489719068 pbc="T T T"
H       16.70234784      10.89549881      10.08610561       0.03277213      -0.00009711       0.02268047
H       21.82472293      10.95197876      13.99096574       0.02748151       0.00068102      -0.00401154
H       21.35435061      10.95081687      11.46879902       0.02588705       0.00043748      -0.00109818
H       15.61478359      10.87564696      14.49462944       0.06133045       0.00018794       0.01790477
H       17.13844594      10.89192610      15.34823699       0.05453986       0.00082863       0.00099996
H       11.32612713      10.88251210      10.31827051      -0.00624699      -0.00057568      -0.02034163
H       14.93411007      10.87533257      12.21081474      -0.22751865      -0.00350252       0.03569300
H       10.07811061      10.88592325      12.33132047       0.00642210      -0.00003086      -0.01734454
H       11.39798948      10.00133451      15.49566800      -0.00309847      -0.00177505      -0.00821706
H       11.41316113      11.74853570      15.49987584      -0.00285586       0.00179026      -0.00813036
H       10.04218923      10.88853386      14.78148825      -0.01234844       0.00025723      -0.00078240
C       17.32346824      10.89701236      13.32270138       0.05028758       0.00048358      -0.00333590
C       18.73117562      10.91437800      13.24911402       0.03833239       0.00066963       0.00661737
C       19.29130474      10.92376791      11.97151169       0.02528883       0.00046374      -0.00365987
C       17.32091168      10.90131154      10.97755795       0.03563819       0.00005867       0.01792501
C       20.83858886      10.94035366      13.55832983       0.03509042       0.00077230       0.00073995
C       11.15632537      10.88098084      12.39508168      -0.00479652      -0.00000446      -0.01360740
C       11.80805679      10.87660045      13.57457023      -0.01757160       0.00003502       0.00753027
C       13.26606971      10.86974117      13.53887516      -0.03494424      -0.00046397       0.02546767
C       13.21268648      10.87638580      11.07440248      -0.03747453      -0.00065711      -0.01426883
C       11.12289386      10.87880527      14.90956347      -0.01350688       0.00011429      -0.00321840
N       16.64936498      10.89076317      12.14485893       0.04439517      -0.00004783       0.00930194
N       18.63889862      10.91794070      10.79824652       0.03225868       0.00041662       0.00378050
N       19.71300428      10.92493542      14.22953771       0.03122650       0.00072722       0.00088292
N       20.65129464      10.94049172      12.18956927       0.02838838       0.00058301      -0.00828028
N       16.64467539      10.88678772      14.47721160       0.05522996       0.00061160       0.00836650
N       11.82518757      10.87930720      11.19228021      -0.01639151      -0.00020430      -0.01756097
N       13.87142441      10.87274608      12.28700863      -0.09193038      -0.00058267       0.00593053
O       13.93116335      10.86202502      14.57889846      -0.00874119      -0.00077587      -0.01311151
O       13.76628610      10.87701675       9.98955266       0.00950254      -0.00128454      -0.00190666
30
Lattice="32.03834340028648 0.0 0.0 0.0 21.74882284697253 0.0 0.0 0.0 25.464471977436453" Properties=species:S:1:pos:R:3:forces:R:3 =T label=7 uncertainty=0.015106912449170565 iteration=55 energy=-4568.5366808325 pbc="T T T"
H       16.68527295      10.89557305      10.07403781       0.06661395       0.00312147      -0.01819394
H       21.80958195      10.95158876      13.99362862      -0.02903111      -0.00299826       0.06050309
H       21.34069415      10.95057827      11.46959158       0.02141912      -0.00058050      -0.00675055
H       15.58320869      10.87553178      14.48485159       0.04125828      -0.00153283      -0.01193256
H       17.11031560      10.89148234      15.34747419       0.03049505      -0.00138853      -0.05520897
H       11.32925566      10.88284120      10.32844800      -0.00546344       0.00277641      -0.03351842
H       15.04830660      10.87713857      12.19287830      -1.02094580      -0.00807464       0.04263274
H       10.07500287      10.88594386      12.34020975      -0.01126702       0.00088749      -0.02321642
H       11.40002696      10.00226617      15.49991357       0.03638813       0.01096544      -0.00665425
H       11.41505050      11.74759578      15.50407830       0.03421675      -0.01060631      -0.00638279
H       10.04874125      10.88838701      14.78203045       0.01174147      -0.00097421       0.02530382
C       17.29726923      10.89675767      13.32404789       0.00741401      -0.00036151      -0.04031204
C       18.71099529      10.91401869      13.24534234       0.01388596      -0.00053023      -0.03515176
C       19.27786111      10.92352020      11.97301429       0.04430327       0.00032797      -0.04336089
C       17.30227851      10.90129322      10.96823813       0.06688397       0.00190503       0.02022301
C       20.81979135      10.93992639      13.55809499       0.01390407      -0.00174559       0.00564438
C       11.15875221      10.88099902      12.40199003      -0.03862215       0.00206352      -0.00955015
C       11.81706704      10.87659250      13.57083992      -0.04010470       0.00162307       0.00791057
C       13.28387038      10.86998804      13.52601020      -0.05012495       0.00042317       0.05988890
C       13.23167967      10.87677341      11.08166834      -0.03661618       0.00430395      -0.05954227
C       11.12997304      10.87874507      14.91132202      -0.00587652       0.00020017       0.00448793
N       16.62621150      10.89079605      12.13973043       0.06972934       0.00064501      -0.05955040
N       18.62199333      10.91772976      10.79606379       0.07807032       0.00208257      -0.03975180
N       19.69600359      10.92452906      14.22896192      -0.01423652      -0.00201858      -0.01088809
N       20.63627218      10.94017456      12.19380138       0.03512075      -0.00066446       0.02098630
N       16.61619182      10.88646139      14.47261073       0.04935807      -0.00088362      -0.02700897
N       11.83343916      10.87944306      11.20108682      -0.02276530       0.00272185      -0.01510598
N       13.91767509      10.87308433      12.28408357      -0.16773575       0.00364482       0.01136939
O       13.93584340      10.86240460      14.58551839      -0.04397953      -0.00365293       0.04372471
O       13.76163481      10.87774857       9.99075061       0.00621179       0.00494873       0.01517294
30
Lattice="32.03834340028648 0.0 0.0 0.0 21.74882284697253 0.0 0.0 0.0 25.464471977436453" Properties=species:S:1:pos:R:3:forces:R:3 =T label=8 uncertainty=0.015196220701090035 iteration=55 energy=-4568.353247724199 pbc="T T T"
H       16.67541750      10.89511637      10.07664845       0.05664454       0.00232583      -0.00811002
H       21.81373751      10.95202561      13.98479324      -0.00897592      -0.00211939       0.04386753
H       21.33748442      10.95066203      11.47058271       0.01536255      -0.00042953      -0.01546484
H       15.57701692      10.87575561      14.48654043       0.05451346      -0.00076139      -0.00805223
H       17.10570881      10.89168356      15.35555821       0.00650101      -0.00134180      -0.02356156
H       11.33006776      10.88243653      10.33339242       0.00229530       0.00204620      -0.01308196
H       15.19853845      10.87833127      12.18654416      -0.96609988      -0.00646372       0.02157222
H       10.07664249      10.88581365      12.34365176      -0.03171737       0.00095351      -0.01123498
H       11.39471727      10.00066434      15.50090865       0.02412098       0.00933756      -0.00044874
H       11.41005784      11.74914466      15.50503337       0.02251695      -0.00899500      -0.00032078
H       10.04705482      10.88852869      14.77832403       0.00923486      -0.00066086       0.01393934
C       17.29605455      10.89680944      13.32995520      -0.00845880      -0.00045831      -0.05815363
C       18.70884699      10.91409434      13.25047332      -0.00378192      -0.00063535      -0.02803472
C       19.27128618      10.92347059      11.97937631       0.04888426       0.00041735      -0.02735344
C       17.29236017      10.90101400      10.96521802       0.04378124       0.00137648       0.00271882
C       20.81764455      10.94017960      13.55726704       0.00606392      -0.00138615       0.00756452
C       11.16444078      10.88069669      12.40342391      -0.01788324       0.00160410       0.00159991
C       11.82298506      10.87635468      13.56966100      -0.02492292       0.00131040      -0.01105702