13
Lattice="25.47563882302877 0.0 0.0 0.0 20.392950059084512 0.0 0.0 0.0 25.069839692119427" Properties=species:S:1:pos:R:3:forces:R:3:charge:R:1 =T label=0 uncertainty=0.0 iteration=110 energy=-1978.954067279 stress="0.0 0.0 0.0 0.0 0.0 0.0 0.0 0.0 0.0" pbc="T T T"
H       10.46750691      10.00000935      13.93644923       0.00595000      -0.00007000      -0.00222000       0.51000000
H       12.54817876      10.10966224      15.06983162       0.00156000       0.00011000       0.00008000       0.34000000
H       14.63081223      10.28139127      13.68173966      -0.00268000       0.00064000       0.00417000       0.31000000
H       15.47563536      10.39294071      11.35503291       0.00332000       0.00071000       0.00529000       0.48000000
H       14.39187621      10.35870095      10.00000808       0.00517000      -0.00061000       0.00220000       0.49000000
C       11.13364391      10.09092112      11.97741675       0.00026000      -0.00068000       0.00363000       0.78000000
C       12.53062604      10.13519421      13.98969757      -0.00320000       0.00019000      -0.00007000      -0.08000000
C       13.65196176      10.22794135      13.23371656      -0.00044000       0.00010000       0.00141000      -0.41000000
C       13.45819405      10.25167875      11.80776915      -0.00224000       0.00075000       0.00182000       0.41000000
N       11.31418976      10.06983481      13.39501591       0.00123000       0.00007000      -0.00714000      -0.67000000
N       12.27622631      10.18711467      11.22409314      -0.00072000      -0.00082000       0.00051000      -0.55000000
N       14.54289580      10.34703618      10.99322498      -0.00288000       0.00081000      -0.00811000      -0.94000000
O       10.00000346      10.02342046      11.53876977      -0.00531000      -0.00120000      -0.00157000      -0.66000000
13
Lattice="25.47563882302877 0.0 0.0 0.0 20.392950059084512 0.0 0.0 0.0 25.069839692119427" Properties=species:S:1:pos:R:3:forces:R:3 =T label=1 uncertainty=0.021426500942663376 iteration=110 energy=-1978.961659181402 pbc="T T T"
H       10.46596315       9.99875292      13.92885506       0.00062339       0.00021007       0.00166879
H       12.56687544      10.11039137      15.02048495      -0.00218099      -0.00004762       0.00686985
H       14.62390773      10.27803434      13.60039104       0.00129676       0.00060724       0.01099079
H       15.42299029      10.38278178      11.30930587       0.00762957       0.00148464       0.01130602
H       14.33362657      10.34755218       9.93648417       0.00953198       0.00182022       0.00971893
C       11.09810101      10.08507634      11.94993227       0.00543765       0.00093888       0.00350567
C       12.52460599      10.13280976      13.94645692       0.00084390       0.00038142       0.00665176
C       13.63584703      10.22356217      13.17077231       0.00263123       0.00072696       0.00912867
C       13.42026942      10.24399109      11.75917653       0.00588699       0.00124222       0.00802454
N       11.30087985      10.06657088      13.37608553       0.00182513       0.00050304       0.00342190
N       12.23189813      10.17890759      11.18057466       0.00730068       0.00135979       0.00607958
N       14.49409988      10.33694335      10.93528280       0.00783105       0.00163356       0.01034307
O        9.96208019      10.01775939      11.54331503       0.00644431       0.00090232       0.00056245
13
Lattice="25.47563882302877 0.0 0.0 0.0 20.392950059084512 0.0 0.0 0.0 25.069839692119427" Properties=species:S:1:pos:R:3:forces:R:3 =T label=2 uncertainty=0.012748285467855941 iteration=110 energy=-1978.953431285185 pbc="T T T"
H       10.45932014       9.99736549      13.91689184       0.00062711       0.00008913       0.00070734
H       12.57474269      10.11021899      14.98445333       0.00000806       0.00004321       0.00179837
H       14.61329379      10.27379356      13.54425433       0.00089206       0.00027917       0.00255212
H       15.38289618      10.37459079      11.21711080       0.00168567       0.00040435       0.00636822
H       14.27633484      10.33640186       9.87636705       0.00328711       0.00062610       0.00379992
C       11.06496327      10.07918969      11.93460199       0.00194804       0.00034716       0.00050849
C       12.51974962      10.13044124      13.90762281       0.00030357       0.00013756       0.00206269
C       13.61981785      10.21896333      13.11974461       0.00082021       0.00026329       0.00269500
C       13.38553971      10.23635980      11.70704123       0.00176201       0.00042149       0.00307148
N       11.29016753      10.06351105      13.35310058       0.00072379       0.00018074       0.00132236
N       12.18565978      10.17025735      11.14894061       0.00254599       0.00049719       0.00145332
N       14.44712561      10.32692950      10.86563857       0.00245929       0.00055142       0.00421748
O        9.91995064      10.01219362      11.53414035       0.00240459       0.00031482       0.00062972
13
Lattice="25.47563882302877 0.0 0.0 0.0 20.392950059084512 0.0 0.0 0.0 25.069839692119427" Properties=species:S:1:pos:R:3:forces:R:3 =T label=3 uncertainty=0.01248427616172846 iteration=110 energy=-1978.9528242629965 pbc="T T T"
H       10.45813829       9.99612572      13.91002355      -0.00662360       0.00001563      -0.00700658
H       12.59344599      10.11081601      14.94439336      -0.01709059      -0.00113881       0.01020329
H       14.60032923      10.26978746      13.47711840       0.00305907      -0.00007957       0.02763978
H       15.33903270      10.36556269      11.16171365       0.01468223       0.00242178      -0.03554717
H       14.23663127      10.32658284       9.81232363      -0.03160549      -0.00133414       0.00878587
C       11.02658638      10.07324284      11.92021718       0.01182109       0.00106121      -0.00019247
C       12.51566086      10.12823906      13.86533447      -0.00128575       0.00001934       0.01008566
C       13.60466329      10.21476146      13.06091882       0.00644178       0.00035843       0.01953506
C       13.34585614      10.22876553      11.64776433       0.01459198       0.00115618       0.01586731
N       11.27660483      10.06033069      13.32715267       0.00069508       0.00040528       0.00114935
N       12.13575564      10.16175500      11.11475260       0.01686693       0.00140051       0.00985980
N       14.40371412      10.31705703      10.80442305       0.00303361       0.00092774       0.00115448
O        9.87311333      10.00673868      11.53506752       0.01589480       0.00129346      -0.01270250
13
Lattice="25.47563882302877 0.0 0.0 0.0 20.392950059084512 0.0 0.0 0.0 25.069839692119427" Properties=species:S:1:pos:R:3:forces:R:3 =T label=4 uncertainty=0.013769708055733389 iteration=110 energy=-1978.9388349220287 pbc="T T T"
H       10.43871882       9.99580410      13.88734024       0.01274956      -0.00005114       0.02783327
H       12.54934221      10.10767807      14.96132439       0.04421805       0.00311691      -0.02860401
H       14.60451857      10.26823768      13.53771333      -0.01071385       0.00022154      -0.06879469
H       15.36866782      10.36984605      11.04093961      -0.02545631      -0.00546520       0.11374486
H       14.12823838      10.31935502       9.81783103       0.11964812       0.00779941      -0.03951412
C       11.05048550      10.07464195      11.91307100      -0.03478484      -0.00301684       0.01151203
C       12.51059360      10.12760455      13.88165427       0.01047680       0.00065670      -0.02379652
C       13.61914270      10.21451918      13.10070992      -0.01510573      -0.00068153      -0.04812862
C       13.37661327      10.22978767      11.67635029      -0.04348276      -0.00262630      -0.04453337
N       11.27317095      10.06048974      13.32071778      -0.00409539      -0.00104446       0.00426222
N       12.17143366      10.16333684      11.13403494      -0.05028059      -0.00384716      -0.02309296
N       14.39917544      10.31664963      10.78905101      -0.00159999      -0.00078589       0.00164927
O        9.90584934      10.00891565      11.49871069      -0.04617381      -0.00379660       0.04601313
13
Lattice="25.47563882302877 0.0 0.0 0.0 20.392950059084512 0.0 0.0 0.0 25.069839692119427" Properties=species:S:1:pos:R:3:forces:R:3 =T label=5 uncertainty=0.015175664937584215 iteration=110 energy=-1978.862650261896 pbc="T T T"
H       10.42738430       9.99584247      13.86252831      -0.00715308      -0.00154900       0.08358845
H       12.51008965      10.10490896      14.98651778       0.06338475       0.00371075       0.00097521
H       14.61391921      10.26801649      13.59860360      -0.00209106       0.00260204      -0.13572946
H       15.39105277      10.37466136      10.93945331       0.00634274      -0.00531072       0.22368442
H       14.02151776      10.31235572       9.85271094       0.34978679       0.02825316      -0.13084994
C       11.08127811      10.07730019      11.90268976      -0.07432480      -0.00536734       0.04730539
C       12.50125308      10.12701011      13.90257355       0.01030349       0.00042570      -0.00405142
C       13.63248786      10.21510496      13.14322439      -0.03342578      -0.00136919      -0.07464234
C       13.41512064      10.23208623      11.71570809      -0.08514532      -0.00322661      -0.08268934
N       11.27676080      10.06140365      13.31677897      -0.02440929      -0.00266798       0.04061103
N       12.21594293      10.16671885      11.15444753      -0.09470080      -0.00549424      -0.05186095
N       14.40037641      10.31729499      10.78727321       0.02294709       0.00389799       0.01668273
O        9.94674735      10.01226956      11.45778329      -0.10243562      -0.00769683       0.11356574
13
Lattice="25.47563882302877 0.0 0.0 0.0 20.392950059084512 0.0 0.0 0.0 25.069839692119427" Properties=species:S:1:pos:R:3:forces:R:3 =T label=6 uncertainty=0.013846764475053296 iteration=110 energy=-1978.703107354515 pbc="T T T"
H       10.43020429       9.99643752      13.83056492      -0.06161377      -0.00617256       0.17534645
H       12.48602224      10.10350266      14.98593472       0.03164156      -0.00010570       0.06151886
H       14.61470019      10.26701781      13.65027992      -0.04090100       0.00061809      -0.21437299
H       15.38842249      10.37665966      10.85420169       0.06918607      -0.00065790       0.18964524
H       13.88777571      10.30153977       9.90270880       0.81081241       0.06486319      -0.38539686
C       11.10960016      10.07933958      11.88458603      -0.13531110      -0.00908982       0.12064881
C       12.49735958      10.12684906      13.90395561      -0.02487237      -0.00309550       0.04711105
C       13.64525134      10.21562415      13.17156873      -0.11341556      -0.00733913      -0.09525525
C       13.44753148      10.23330408      11.74716525      -0.14653203      -0.00558499      -0.13194508
N       11.28610259      10.06242029      13.30118818      -0.07094372      -0.00729469       0.10767116
N       12.25198767      10.16880053      11.17416820      -0.16449055      -0.00990894      -0.04332923
N       14.39149688      10.31578444      10.78084176       0.07287987       0.00824787       0.04089278
O        9.98579745      10.01520082      11.41441763      -0.16948743      -0.01231763       0.21869300
13
Lattice="25.47563882302877 0.0 0.0 0.0 20.392950059084512 0.0 0.0 0.0 25.069839692119427" Properties=species:S:1:pos:R:3:forces:R:3 =T label=7 uncertainty=0.01269017005961088 iteration=110 energy=-1978.4181454628051 pbc="T T T"
H       10.44174024       9.99759257      13.79775641      -0.07854812      -0.00713327       0.23191536
H       12.48015873      10.10352658      14.97439383       0.00767148      -0.00615218       0.07232789
H       14.62238116      10.26690460      13.69030808      -0.08742849      -0.00854657      -0.20558663
H       15.37545211      10.37677403      10.81886754      -0.03687079      -0.00553814      -0.05344422
H       13.73597282      10.28939437       9.97486515       1.47055827       0.11256627      -0.68683529
C       11.13489094      10.08103651      11.86198003      -0.17675322      -0.00975251       0.21819821
C       12.50204295      10.12742968      13.89509721      -0.07533534      -0.00902544       0.07705619
C       13.66649729      10.21699859      13.18933091      -0.17625766      -0.01604620      -0.08366049
C       13.47492335      10.23434546      11.77180496      -0.32290853      -0.01741112      -0.11839523
N       11.29937786      10.06378460      13.28102220      -0.09584892      -0.01013697       0.17372444
N       12.28273502      10.17065088      11.18221169      -0.26863503      -0.01730824      -0.00781847
N       14.37782740      10.31423809      10.77314430       0.05342081       0.00122665       0.11509440
O       10.01745984      10.01749970      11.37351159      -0.21146336      -0.00637434       0.26997435
13
Lattice="25.47563882302877 0.0 0.0 0.0 20.392950059084512 0.0 0.0 0.0 25.069839692119427" Properties=species:S:1:pos:R:3:forces:R:3 =T label=8 uncertainty=0.014459099012123186 iteration=110 energy=-1977.9648406929027 pbc="T T T"
H       10.45041175       9.99837936      13.77214177      -0.08175418      -0.00561550       0.25252269
H       12.47931742      10.10420758      14.96639031       0.04980796      -0.00826646       0.09458761
H       14.63203451      10.26784926      13.71294971      -0.08839180      -0.01522667      -0.06545749
H       15.37955566      10.37738435      10.82482220      -0.31520648      -0.01968267      -0.33857027
H       13.57342960      10.27695052      10.05072241       2.46708655       0.18029803      -0.71475843
C       11.15439400      10.08211011      11.83786736      -0.17469724      -0.00735857       0.26358029
C       12.51036461      10.12842642      13.88657276      -0.06298833      -0.01238052       0.06158019
C       13.68594952      10.21876970      13.19853270      -0.11507417      -0.01194366      -0.05051122
C       13.51061382      10.23626881      11.78483663      -0.59307601      -0.04297511      -0.00995299
N       11.30995563      10.06490249      13.26182093      -0.10683001      -0.00896091       0.23921032
N       12.31239847      10.17255991      11.18304817      -0.39621129      -0.02297606       0.11410571
N       14.37193617      10.31410151      10.76039830      -0.27925655      -0.01466302       0.02306061
O       10.04079497      10.01819792      11.34370590      -0.22284088       0.00698606       0.25970683
13
Lattice="25.47563882302877 0.0 0.0 0.0 20.392950059084512 0.0 0.0 0.0 25.069839692119427" Properties=species:S:1:pos:R:3:forces:R:3 =T label=9 uncertainty=0.012017606737968279 iteration=110 energy=-1977.3769165603667 pbc="T T T"
H       10.45617392       9.99877471      13.75433383      -0.05247227      -0.00431203       0.16240737
H       12.47580212      10.10479067      14.95971099       0.05889651      -0.00093673       0.03434344
H       14.63826514      10.26892265      13.71753525      -0.05354344      -0.00739675      -0.03032874
H       15.40180036      10.37877170      10.84870429      -0.39502758      -0.01999650      -0.39846284
H       13.39935422      10.26422800      10.10110233       2.42741447       0.16763493      -0.44911936
C       11.16670402      10.08262729      11.81927449      -0.13020608      -0.00906535       0.21091053
C       12.51480341      10.12929927      13.88222368      -0.05652883      -0.00986394       0.06402245
C       13.69405256      10.21961029      13.20207889      -0.05243476      -0.00310439      -0.05117043
C       13.55244922      10.23930010      11.78551477      -0.53503406      -0.04397031       0.06252309
N       11.31748742      10.06553360      13.24494298      -0.09257095      -0.00894995       0.20679700
N       12.34034002      10.17417872      11.17497744      -0.40745337      -0.02726792       0.22673521
N       14.39165810      10.31513486      10.75877406      -0.53161033      -0.02593215      -0.14603184
O       10.05649814      10.01770234      11.32539423      -0.14109381       0.00135460       0.16880915
13
Lattice="25.47563882302877 0.0 0.0 0.0 20.392950059084512 0.0 0.0 0.0 25.069839692119427" Properties=species:S:1:pos:R:3:forces:R:3 =T label=10 uncertainty=0.010312257463362541 iteration=110 energy=-1977.0781032076177 pbc="T T T"
H       10.45994968       9.99908459      13.74264217      -0.00001881      -0.00000990      -0.00002581
H       12.47156501      10.10485851      14.95723161       0.00003762       0.00001326      -0.00012821
H       14.64211667      10.26945444      13.71970184      -0.00002684      -0.00000040      -0.00024598
H       15.43023344      10.38020952      10.87737644      -0.00016063      -0.00002258      -0.00027805
H       13.22457050      10.25215597      10.13341856      -0.00019504      -0.00004305      -0.00017218
C       11.17606869      10.08327796      11.80408583      -0.00011860      -0.00003334      -0.00007093
C       12.51887320      10.13000911      13.87760381      -0.00001567      -0.00000039      -0.00013222
C       13.69782259      10.21983302      13.20574893      -0.00005027      -0.00000587      -0.00019391
C       13.59096046      10.24246410      11.78099669      -0.00011913      -0.00002035      -0.00018910
N       11.32414861      10.06617729      13.23004927      -0.00004523      -0.00001196      -0.00007390
N       12.36966634      10.17614005      11.15863961      -0.00014814      -0.00003334      -0.00012994
N       14.42992832      10.31699993      10.76927607      -0.00016548      -0.00003399      -0.00023078
O       10.06664364      10.01760244      11.31324273      -0.00014572      -0.00004833      -0.00000653
13
Lattice="25.47563882302877 0.0 0.0 0.0 20.392950059084512 0.0 0.0 0.0 25.069839692119427" Properties=species:S:1:pos:R:3:forces:R:3 =T label=11 uncertainty=0.011792048185672876 iteration=110 energy=-1977.3498392975073 pbc="T T T"
H       10.46353749       9.99974896      13.73253550       0.04783788       0.00885406      -0.13486011
H       12.46984516      10.10425196      14.95578604      -0.02290791      -0.00808156      -0.01942215
H       14.64533782      10.26895404      13.72290313       0.04294503      -0.00667909       0.04245605
H       15.46256323      10.38110946      10.91197026       0.43114327       0.01198037       0.46122873
H       13.05565373      10.24100832      10.15983061      -2.25365700      -0.14875879       0.35217495
C       11.18203700      10.08431959      11.79212791       0.07949463       0.01386522      -0.15959695
C       12.52477940      10.13009111      13.87234100       0.07877273       0.00109131      -0.07034821
C       13.70255688      10.21987138      13.20715226       0.06310299       0.00050300       0.01852101
C       13.62699299      10.24470192      11.77295759       0.48057827       0.02983211      -0.10744085
N       11.32813730      10.06693859      13.21624124       0.05316138       0.01014374      -0.18427913
N       12.39545573      10.17837038      11.14517746       0.34389491       0.02972048      -0.17972673
N       14.47122614      10.31942098      10.77929262       0.55078033       0.03226361       0.13339673
O       10.07473778      10.01954887      11.30220334       0.10783556       0.02592517      -0.14728403
13
Lattice="25.47563882302877 0.0 0.0 0.0 20.392950059084512 0.0 0.0 0.0 25.069839692119427" Properties=species:S:1:pos:R:3:forces:R:3 =T label=12 uncertainty=0.013352738447205567 iteration=110 energy=-1977.9007671737527 pbc="T T T"
H       10.46676910      10.00051930      13.72095831       0.04884596       0.01164402      -0.17515546
H       12.46970146      10.10367580      14.95165895      -0.00214200      -0.00870895      -0.06257345
H       14.64991799      10.26836197      13.72604597       0.06925572      -0.00896305       0.04727320
H       15.49777680      10.38197508      10.95412545       0.53249163       0.01306408       0.63740172
H       12.88637923      10.23008384      10.17486937      -2.56070106      -0.16528771       0.22728064
C       11.18757551      10.08548826      11.78347050       0.08365495       0.01765074      -0.13101612
C       12.53149577      10.13021036      13.86803656       0.10157145       0.00179905      -0.06526208
C       13.70980296      10.21986086      13.20401548       0.10954520      -0.00017158      -0.04765652
C       13.66173725      10.24690372      11.76181066       0.52542869       0.03328081      -0.16881064
N       11.33104109      10.06752008      13.20339103       0.04387240       0.00878312      -0.19444748
N       12.41187089      10.17960196      11.14582677       0.24814031       0.01859562       0.00969415
N       14.51406916      10.32202525      10.78855192       0.64789625       0.03935740       0.13982719
O       10.08447151      10.02205851      11.28735551       0.14710048       0.03792882      -0.22461265
13
Lattice="25.47563882302877 0.0 0.0 0.0 20.392950059084512 0.0 0.0 0.0 25.069839692119427" Properties=species:S:1:pos:R:3:forces:R:3 =T label=13 uncertainty=0.013047526373953514 iteration=110 energy=-1978.37665407519 pbc="T T T"
H       10.46877621      10.00111294      13.70887419       0.02134037       0.00631772      -0.12879191
H       12.47131612      10.10342057      14.94354732       0.01723003      -0.00271685      -0.08657523
H       14.65534616      10.26794334      13.72690486       0.05781649      -0.00447024       0.00887249
H       15.53133637      10.38243962      11.01119262       0.35739251       0.00491569       0.60782355
H       12.71975773      10.21954785      10.17216293      -1.77548379      -0.11229483      -0.02902976
C       11.19505995      10.08658069      11.78125001       0.07963789       0.01161666      -0.02370800
C       12.53865226      10.13060135      13.85971511       0.07623289       0.00415923      -0.08882568
C       13.71763952      10.21987170      13.19517222       0.08344740       0.00010206      -0.09442213
C       13.68986884      10.24882480      11.74727798       0.29959308       0.02044071      -0.15503207
N       11.33556980      10.06797102      13.19406552       0.04819295       0.00479230      -0.09943754
N       12.41844545      10.17979135      11.15563386       0.06989779       0.00198694       0.10434718
N       14.55690372      10.32448044      10.79689581       0.45620753       0.02612243       0.08866265
O       10.09857381      10.02455707      11.26883184       0.15013564       0.02659729      -0.19738565
13
Lattice="25.47563882302877 0.0 0.0 0.0 20.392950059084512 0.0 0.0 0.0 25.069839692119427" Properties=species:S:1:pos:R:3:forces:R:3 =T label=14 uncertainty=0.01365014773994775 iteration=110 energy=-1978.6809858338863 pbc="T T T"
H       10.46882192      10.00131763      13.69746356       0.00025166       0.00126388      -0.07075683
H       12.47612081      10.10371541      14.93007135       0.02981224       0.00182861      -0.08366089
H       14.66301190      10.26805105      13.71927803       0.04749593       0.00065699      -0.04753688
H       15.55881436      10.38193136      11.09237687       0.17010361      -0.00318472       0.50292650
H       12.56185042      10.20976623      10.15784167      -0.97869823      -0.06064918      -0.08890497
C       11.20356661      10.08729700      11.78655494       0.05260305       0.00441898       0.03281383
C       12.54768046      10.13123812      13.84520834       0.05594106       0.00393897      -0.09003897
C       13.72687272      10.22018438      13.18506758       0.05718276       0.00192386      -0.06280382
C       13.70528621      10.24991727      11.72841612       0.09539554       0.00674228      -0.11707347
N       11.33808318      10.06817305      13.18665811       0.01551528       0.00124074      -0.04599489
N       12.42089794      10.17987465      11.15853559       0.01505065       0.00048743       0.01783349
N       14.59619316      10.32644419      10.80511994       0.24330375       0.01213435       0.05075173
O       10.11833277      10.02673180      11.25016764       0.12230808       0.01345688      -0.11567497
13
Lattice="25.47563882302877 0.0 0.0 0.0 20.392950059084512 0.0 0.0 0.0 25.069839692119427" Properties=species:S:1:pos:R:3:forces:R:3 =T label=15 uncertainty=0.0131525543619699 iteration=110 energy=-1978.8362177782913 pbc="T T T"
H       10.47144989      10.00153384      13.68787263       0.00644779       0.00052939      -0.02365129
H       12.49117572      10.10492129      14.91248806       0.03711615       0.00297025      -0.04343341
H       14.67276438      10.26887293      13.68878579       0.02400816       0.00201251      -0.07535604
H       15.57189289      10.37939258      11.21023534       0.03202268      -0.00628708       0.29003090
H       12.43231461      10.20226587      10.13623569      -0.31907170      -0.01849793      -0.05334944
C       11.20657255      10.08745628      11.79038564       0.00727292       0.00037234       0.00934431
C       12.55876801      10.13191055      13.83071925       0.02728697       0.00164787      -0.03581110
C       13.73256796      10.22032434      13.16876117       0.01396937       0.00032880      -0.04035555
C       13.70794836      10.25016987      11.70378638       0.00642621       0.00059516      -0.06083034
N       11.33927895      10.06812256      13.17853450       0.00290645      -0.00013430      -0.02007862
N       12.41657500      10.17984243      11.14659579      -0.01080936      -0.00010959      -0.02956260
N       14.63696135      10.32810832      10.82160211       0.10023111       0.00406428       0.04037583
O       10.12881376      10.02778038      11.23720405       0.02562595       0.00256121      -0.03191852
13
Lattice="25.47563882302877 0.0 0.0 0.0 20.392950059084512 0.0 0.0 0.0 25.069839692119427" Properties=species:S:1:pos:R:3:forces:R:3 =T label=16 uncertainty=0.016197439028069464 iteration=110 energy=-1978.8806473215795 pbc="T T T"
H       10.47532905      10.00152107      13.68185556       0.00146394      -0.00000792      -0.00231595
H       12.51836396      10.10667620      14.88576276       0.01044405       0.00067179      -0.01037525
H       14.67555228      10.26843915      13.61864682       0.00100468      -0.00018255      -0.02709608
H       15.55184736      10.37204087      11.31612935      -0.00781744      -0.00284559       0.04019980
H       12.34116973      10.19524975      10.09686246      -0.03504088      -0.00272283      -0.01522060
C       11.19264749      10.08534041      11.77725745      -0.00546848      -0.00083273      -0.00510180
C       12.56742053      10.13171411      13.80329149       0.00328975      -0.00008376      -0.01064872
C       13.72407241      10.21858378      13.12185733      -0.00331314      -0.00068242      -0.01816972
C       13.69197630      10.24729136      11.66201662      -0.00624264      -0.00113051      -0.01619677
N       11.33852024      10.06708222      13.16542592      -0.00034054      -0.00040907      -0.00509310
N       12.39238610      10.17677266      11.10894041      -0.00941098      -0.00120735      -0.01456695
N       14.65999527      10.32617150      10.82521492       0.00865026      -0.00077669       0.00113387
O       10.10427513      10.02530881      11.23604041      -0.00958116      -0.00097023      -0.00043120
13
Lattice="25.47563882302877 0.0 0.0 0.0 20.392950059084512 0.0 0.0 0.0 25.069839692119427" Properties=species:S:1:pos:R:3:forces:R:3 =T label=17 uncertainty=0.013693698159057022 iteration=110 energy=-1978.88090796505 pbc="T T T"
H       10.47580765      10.00111667      13.67820182       0.00147757       0.00017125       0.00210993
H       12.53758331      10.10744829      14.84764464      -0.00181858       0.00006711       0.01093664
H       14.66000488      10.26472504      13.54663710       0.00413456       0.00125540       0.01319708
H       15.51833695      10.36350737      11.27986493       0.00800509       0.00185599       0.03402258
H       12.27460463      10.18469298      10.05783772       0.01486244       0.00324531       0.00613582
C       11.16137613      10.07997001      11.75899525       0.00855310       0.00160801       0.00483887
C       12.56353222      10.12981814      13.76338022       0.00270108       0.00068549       0.00964088
C       13.70454314      10.21465435      13.05689132       0.00602100       0.00125819       0.01519953
C       13.65793813      10.24043785      11.60178765       0.01005558       0.00209208       0.01527352
N       11.32795143      10.06457406      13.14432130       0.00396164       0.00077033       0.00514891
N       12.35398606      10.16925346      11.06585730       0.01155148       0.00240633       0.00869768
N       14.63654480      10.31843423      10.77825725       0.01438828       0.00270918       0.02087982
O       10.06112943      10.01946930      11.23868492       0.00808938       0.00151058       0.00127483
13
Lattice="25.47563882302877 0.0 0.0 0.0 20.392950059084512 0.0 0.0 0.0 25.069839692119427" Properties=species:S:1:pos:R:3:forces:R:3 =T label=18 uncertainty=0.01633492676190994 iteration=110 energy=-1978.8710192750389 pbc="T T T"
H       10.47091964      10.00056473      13.67140781       0.00041642       0.00003716       0.00059151
H       12.54287911      10.10719751      14.81287084      -0.00070932       0.00000042       0.00240931
H       14.64682796      10.26070309      13.50560733       0.00062208       0.00024329       0.00402425
H       15.49317081      10.35768435      11.16860801       0.00255987       0.00052009       0.00519989