16
Lattice="25.506209070429115 0.0 0.0 0.0 20.404861172890985 0.0 0.0 0.0 26.528226627444447" Properties=species:S:1:pos:R:3:forces:R:3:charge:R:1 =T label=0 uncertainty=0.0 iteration=138 energy=-2686.928575642 stress="0.0 0.0 0.0 0.0 0.0 0.0 0.0 0.0 0.0" pbc="T T T"
H       13.32791246      10.35856858      16.27848918       0.00540000      -0.00034000       0.00284000       0.49000000
H       14.64864947       9.99993274       9.99992114      -0.00302000      -0.00439000      -0.00507000       0.35000000
H       12.18046464      10.10409956      10.70939203      -0.00137000       0.00146000      -0.00200000       0.50000000
H       10.00001534      10.24719885      15.16812372       0.00234000      -0.00024000       0.00175000       0.49000000
H       10.99572673      10.04278295      16.52817285      -0.00075000      -0.00039000       0.00047000       0.47000000
C       14.46474971      10.18714735      14.56346585      -0.00495000       0.00098000      -0.00080000       0.62000000
C       11.96057561      10.27494946      14.72844490       0.00280000      -0.00063000       0.00333000       0.59000000
C       12.88438499      10.15921309      12.70924893       0.00054000       0.00052000      -0.00122000       0.34000000
C       14.20489245      10.13260515      13.14996235      -0.00266000       0.00137000      -0.00059000       0.04000000
C       14.31104929      10.04823105      11.02136398       0.00196000      -0.00049000       0.00141000       0.06000000
N       13.21586369      10.26087011      15.28004631       0.00086000      -0.00244000       0.00171000      -0.68000000
N       11.73864608      10.21691804      13.43797931       0.00003000      -0.00032000       0.00157000      -0.56000000
N       15.07899023      10.06394279      12.07755879      -0.00074000      -0.00133000       0.00141000      -0.47000000
N       12.96240849      10.10324256      11.34166579      -0.00034000      -0.00031000      -0.00096000      -0.64000000
N       10.89816548      10.40480600      15.59477719       0.00143000      -0.00318000      -0.00310000      -0.96000000
O       15.50611721      10.18594346      15.18833823      -0.00154000       0.00972000      -0.00078000      -0.63000000
16
Lattice="25.506209070429115 0.0 0.0 0.0 20.404861172890985 0.0 0.0 0.0 26.528226627444447" Properties=species:S:1:pos:R:3:forces:R:3 =T label=1 uncertainty=0.012358021226314388 iteration=138 energy=-2686.9344251301086 pbc="T T T"
H       13.36736728      10.34099698      16.27519967      -0.00481732       0.00182549       0.00062900
H       14.61710056       9.99895469       9.97247268       0.00176642       0.00048278       0.00238728
H       12.16664463      10.10231157      10.72305183       0.00072708       0.00003828      -0.00034162
H       10.03349906      10.24501489      15.18211955      -0.00347660       0.00119256      -0.00228466
H       11.03852550      10.07054458      16.54040708      -0.00488775      -0.00319266      -0.00202501
C       14.49907201      10.18561086      14.54553103      -0.00312723       0.00007820       0.00200006
C       11.99487370      10.27111676      14.73304138      -0.00331830       0.00023870      -0.00058633
C       12.90291749      10.15738355      12.70916811      -0.00141495      -0.00000777       0.00048457
C       14.22655285      10.13175410      13.13674617      -0.00192249      -0.00000614       0.00184189
C       14.30180739      10.04706105      11.00059627       0.00043324       0.00024742       0.00201731
N       13.25081312      10.25453077      15.27679730      -0.00375646       0.00048204       0.00053110
N       11.76114169      10.21534916      13.44560159      -0.00223963      -0.00008917      -0.00063498
N       15.08720854      10.06340860      12.04825285      -0.00067297       0.00018173       0.00269893
N       12.96024725      10.10148234      11.33912399      -0.00000238       0.00007928       0.00052524
N       10.93373796      10.40056931      15.60177971      -0.00379992       0.00052472      -0.00101502
O       15.54329835      10.18513265      15.16350375      -0.00380601       0.00007897       0.00313636
16
Lattice="25.506209070429115 0.0 0.0 0.0 20.404861172890985 0.0 0.0 0.0 26.528226627444447" Properties=species:S:1:pos:R:3:forces:R:3 =T label=2 uncertainty=0.01154013772069608 iteration=138 energy=-2686.9298770627474 pbc="T T T"
H       13.42035931      10.32354148      16.26674789      -0.03369700       0.00651991       0.00669558
H       14.61193581       9.99209255       9.95384429      -0.00063840       0.00218245       0.00492724
H       12.16456097      10.10291328      10.71815700      -0.00114675      -0.00004633       0.00411980
H       10.06470048      10.22716483      15.20718292      -0.00824649       0.00677051      -0.00652121
H       11.08323242      10.10275362      16.56526489      -0.00937024      -0.01122579      -0.00937659
C       14.52437871      10.18541853      14.52591561      -0.00700855       0.00012299       0.00827754
C       12.02425917      10.26983636      14.73968371      -0.01019313       0.00017548      -0.00353563
C       12.91223050      10.15879607      12.70177165      -0.00241847      -0.00052391       0.00181624
C       14.24214642      10.13257485      13.11588299      -0.00442951      -0.00037297       0.00702351
C       14.30108331      10.04407110      10.98333480       0.00069912       0.00088220       0.00457638
N       13.28656636      10.25140572      15.27053726      -0.01200563       0.00023983       0.00324843
N       11.78128844      10.21780383      13.45124468      -0.00606811      -0.00103635      -0.00378986
N       15.09148794      10.06101983      12.02583716      -0.00066253       0.00079144       0.00663384
N       12.96165643      10.10144378      11.33313057       0.00047474      -0.00004403       0.00209300
N       10.96901368      10.39513593      15.61334949      -0.00970802       0.00230519      -0.00467727
O       15.57750978      10.18443630      15.13102001      -0.00800054       0.00031396       0.00916598
16
Lattice="25.506209070429115 0.0 0.0 0.0 20.404861172890985 0.0 0.0 0.0 26.528226627444447" Properties=species:S:1:pos:R:3:forces:R:3 =T label=3 uncertainty=0.014985516103775933 iteration=138 energy=-2686.9167176991145 pbc="T T T"
H       13.51027599      10.30644250      16.24872518      -0.23074128       0.01838434       0.06165138
H       14.61376032       9.98640487       9.94110771      -0.01799036       0.00399745      -0.00759224
H       12.16778078      10.10302278      10.70722547      -0.01087574      -0.00188153       0.02030338
H       10.08595712      10.20942408      15.22401224       0.02210173       0.01824932       0.00939843
H       11.10723185      10.13210174      16.58975068       0.03243119      -0.02411953      -0.01066784
C       14.54247114      10.18509851      14.50413842       0.02619064      -0.00254980       0.01154687
C       12.05085684      10.26941614      14.74902541       0.00560399      -0.00187687      -0.01541439
C       12.91850968      10.16016833      12.69712685       0.00957635      -0.00351541      -0.00138440
C       14.25363014      10.13356139      13.09762962       0.00580687      -0.00219231       0.00066495
C       14.29919062      10.04177675      10.97151073      -0.00294093       0.00137799      -0.00200343
N       13.31785873      10.25086897      15.26186979      -0.00519131      -0.00529842       0.01406402
N       11.79703692      10.22053301      13.46129779       0.00843145      -0.00555859      -0.00948317
N       15.09319450      10.05894999      12.00860046      -0.00119931       0.00124029       0.00013481
N       12.96031629      10.10156744      11.32764084       0.00354850      -0.00116007       0.00638080
N       10.99408897      10.38901950      15.62558778       0.02236467       0.01395742       0.00042143
O       15.59782346      10.18362989      15.10754579       0.06334399      -0.00470190      -0.05904392
16
Lattice="25.506209070429115 0.0 0.0 0.0 20.404861172890985 0.0 0.0 0.0 26.528226627444447" Properties=species:S:1:pos:R:3:forces:R:3 =T label=4 uncertainty=0.014910020503836082 iteration=138 energy=-2686.839355878413 pbc="T T T"
H       13.62367002      10.29737015      16.21849973      -0.80809760       0.05011766       0.21211696
H       14.62203161       9.98455794       9.94465685      -0.01719222      -0.00266404      -0.03701300
H       12.17270077      10.10390753      10.69773404       0.02419696      -0.00335954       0.00799918
H       10.07531922      10.20081145      15.21904762       0.09134506       0.00496280       0.07526500
H       11.09138385      10.14397344      16.59475139       0.08745121      -0.05283478       0.04417170
C       14.52982341      10.18631766      14.49856160       0.11738306      -0.00811106      -0.00238406
C       12.04816054      10.27025349      14.75666639       0.06989902      -0.00270774      -0.04153297
C       12.91393475      10.16180912      12.69786387       0.03885245      -0.00191360      -0.00271176
C       14.25083941      10.13462620      13.09733004       0.04651474      -0.00413254      -0.01664961
C       14.30049424      10.04114338      10.97234929      -0.00774144      -0.00376114      -0.01646794
N       13.32062711      10.25334892      15.25511505       0.00963587       0.00094061      -0.01599754
N       11.79305618      10.22310799      13.46598719       0.02697368       0.00587645      -0.00227864
N       15.09381266      10.05841316      12.00824063       0.00280290      -0.00910033      -0.00330805
N       12.95852015      10.10207979      11.32459841       0.01190223       0.00339214       0.00624917
N       10.98324241      10.38216036      15.62521609       0.09864704       0.03983099       0.05116940
O       15.56690066      10.18594357      15.13675263       0.25784345      -0.01970520      -0.27237666
16
Lattice="25.506209070429115 0.0 0.0 0.0 20.404861172890985 0.0 0.0 0.0 26.528226627444447" Properties=species:S:1:pos:R:3:forces:R:3 =T label=5 uncertainty=0.014772240462938955 iteration=138 energy=-2686.6704822108804 pbc="T T T"
H       13.73147009      10.29065649      16.19019643      -1.43169687       0.07817218       0.38016350
H       14.62427147       9.98490183       9.94953638      -0.03146627      -0.00378739      -0.04885219
H       12.16944234      10.10435390      10.69669615       0.03981140      -0.00316884       0.00865990
H       10.06324675      10.20013518      15.20907921       0.13902043       0.00000443       0.08045802
H       11.07990801      10.15108053      16.58888497       0.04142742      -0.05737064       0.09582873
C       14.51424883      10.18739749      14.49883484       0.26978831      -0.01865526      -0.01912559
C       12.03892877      10.27060963      14.76219793       0.13645396      -0.01674400      -0.01348981
C       12.90879782      10.16206166      12.69820943       0.07002623      -0.00157770       0.02359321
C       14.24468042      10.13517703      13.09950271       0.07921494       0.00056348      -0.02113654
C       14.30152031      10.04164084      10.97450444      -0.02216504      -0.00603849      -0.03966852
N       13.31942351      10.25320542      15.25726604       0.08435750       0.00443254      -0.10098789
N       11.78953142      10.22231341      13.46628767       0.04447457       0.01573835       0.05789394
N       15.09344830      10.05962576      12.00862181       0.00871928      -0.01399864      -0.04385895
N       12.95694389      10.10162398      11.32375924       0.00343589       0.00588696       0.01403080
N       10.97021235      10.37684134      15.61841026       0.14216214       0.04812357       0.09643582
O       15.53262779      10.18856526      15.17296889       0.50985447      -0.03681918      -0.49269723
16
Lattice="25.506209070429115 0.0 0.0 0.0 20.404861172890985 0.0 0.0 0.0 26.528226627444447" Properties=species:S:1:pos:R:3:forces:R:3 =T label=6 uncertainty=0.014239422421039429 iteration=138 energy=-2686.4159970943138 pbc="T T T"
H       13.83527898      10.28497392      16.16262994      -2.00993741       0.09170688       0.44843234
H       14.62652539       9.98516884       9.95303979      -0.03271285      -0.00329041      -0.03311398
H       12.16655364      10.10458201      10.69607888       0.01790560      -0.00093780       0.00278560
H       10.05323776      10.20012154      15.20329028       0.14964405      -0.00432966       0.05489981
H       11.07699996      10.15527187      16.58196849      -0.03277978      -0.03807603       0.12747604
C       14.49473341      10.18874771      14.50018834       0.47183854      -0.02448746      -0.03240973
C       12.02910302      10.27181957      14.76316701       0.16831582      -0.01774836       0.07325673
C       12.90374715      10.16217483      12.69649038       0.08962417       0.00244216       0.06573270
C       14.23897230      10.13513596      13.10100683       0.07970972       0.00504841      -0.03446526
C       14.30312175      10.04207480      10.97735342      -0.02577619      -0.00430784      -0.04415463
N       13.31335387      10.25287919      15.26458312       0.21172184      -0.00671075      -0.15455748
N       11.78634311      10.22117098      13.46209380       0.08732614       0.01406764       0.14844733
N       15.09282434      10.06063761      12.01176784       0.00817071      -0.01242170      -0.09195539
N       12.95670012      10.10119619      11.32273695      -0.00255054       0.00548758       0.02382940
N       10.95998329      10.37334988      15.61144063       0.13844321       0.04299226       0.12399066
O       15.49573213      10.19122977      15.20861859       0.73767681      -0.05299297      -0.69363465
16
Lattice="25.506209070429115 0.0 0.0 0.0 20.404861172890985 0.0 0.0 0.0 26.528226627444447" Properties=species:S:1:pos:R:3:forces:R:3 =T label=7 uncertainty=0.012681311991307082 iteration=138 energy=-2686.0934036731314 pbc="T T T"
H       13.93636006      10.28035324      16.14008570      -2.46621907       0.09494573       0.37363008
H       14.62814989       9.98532931       9.95467896      -0.02521845       0.00263940      -0.02395934
H       12.16565088      10.10462831      10.69594889      -0.01052748      -0.00311290      -0.00363882
H       10.04576179      10.20033135      15.20055473       0.13229675       0.00401633       0.03099212
H       11.07870254      10.15721132      16.57558020      -0.06494415      -0.03433153       0.13581452
C       14.47104236      10.18997585      14.50179316       0.64160224      -0.02107247      -0.03286145
C       12.02068750      10.27270531      14.75948060       0.17013846       0.01314570       0.16236091
C       12.89925869      10.16205075      12.69318203       0.09714978       0.00400252       0.07903960
C       14.23498977      10.13488335      13.10272234       0.05397765      -0.00115224      -0.06332934
C       14.30441125      10.04228889      10.97955184      -0.02072544      -0.00035281      -0.03238842
N       13.30274505      10.25321364      15.27234041       0.36874782      -0.02375957      -0.06265320
N       11.78197565      10.22046262      13.45463621       0.13560925      -0.00229077       0.23064569
N       15.09242023      10.06126080      12.01636246       0.00625463      -0.00857201      -0.09747024
N       12.95682879      10.10091934      11.32153631      -0.00116773       0.00214661       0.02271393
N       10.95307475      10.37118463      15.60522069       0.10434314       0.04128735       0.14087117
O       15.45869561      10.19389029      15.24344926       0.86924895      -0.06695816      -0.85718110
16
Lattice="25.506209070429115 0.0 0.0 0.0 20.404861172890985 0.0 0.0 0.0 26.528226627444447" Properties=species:S:1:pos:R:3:forces:R:3 =T label=8 uncertainty=0.011442734378639708 iteration=138 energy=-2685.7404385885047 pbc="T T T"
H       14.03605350      10.27650789      16.12498713      -2.49983054       0.08824633       0.22014899
H       14.62915359       9.98521868       9.95562734      -0.02124292       0.00854312      -0.02426899
H       12.16607147      10.10475371      10.69610352      -0.02120249      -0.00587694       0.00152304
H       10.04045250      10.20016273      15.19931931       0.09716988       0.02074848       0.00992645
H       11.08136514      10.15862176      16.57010836      -0.05147275      -0.04139611       0.11126325
C       14.44514451      10.19082461      14.50310052       0.65167372      -0.01187881      -0.01806772
C       12.01384728      10.27216788      14.75292148       0.14899947       0.04468162       0.19613375
C       12.89534620      10.16188821      12.68998799       0.09752462       0.00077541       0.04588250
C       14.23282812      10.13493149      13.10526774       0.02323649      -0.01053477      -0.07467907
C       14.30524286      10.04230136      10.98084329      -0.01519366       0.00185052      -0.02966935
N       13.28787429      10.25417067      15.27485558       0.46890724      -0.02740024       0.11545533
N       11.77651614      10.22055368      13.44532254       0.13684848      -0.01969626       0.25811467
N       15.09217283      10.06160662      12.02027525       0.00464071      -0.00438449      -0.05906170
N       12.95687513      10.10083165      11.32061665      -0.00113579      -0.00107022       0.01379238
N       10.94889699      10.36951196      15.59953817       0.07382714       0.03226750       0.13037779
O       15.42361064      10.19659283      15.27805844       0.84171158      -0.07077626      -0.87897775
16
Lattice="25.506209070429115 0.0 0.0 0.0 20.404861172890985 0.0 0.0 0.0 26.528226627444447" Properties=species:S:1:pos:R:3:forces:R:3 =T label=9 uncertainty=0.010496621277263037 iteration=138 energy=-2685.4443391854275 pbc="T T T"
H       14.13461480      10.27302117      16.11630555      -1.66287160       0.05675206       0.08173347
H       14.62997634       9.98487845       9.95656367      -0.01394568       0.00631659      -0.01339646
H       12.16690010      10.10498487      10.69605049      -0.01456118      -0.00366730       0.00568964
H       10.03665708      10.19933961      15.19894329       0.05186991       0.02077283      -0.00476853
H       11.08342992      10.16027630      16.56573853      -0.02389707      -0.02851171       0.06399759
C       14.41949117      10.19129033      14.50379347       0.42558034      -0.00390805      -0.00490264
C       12.00800649      10.27040198      14.74519571       0.09841694       0.03772501       0.14434095
C       12.89151502      10.16185682      12.68817997       0.06847499      -0.00127990       0.00985549
C       14.23193037      10.13534796      13.10819663       0.00488271      -0.01007545      -0.04535520
C       14.30583613      10.04222689      10.98199609      -0.00884198       0.00120533      -0.02658344
N       13.26942576      10.25524690      15.27029251       0.34979224      -0.01475277       0.14863082
N       11.77114369      10.22132733      13.43515676       0.08547243      -0.01810860       0.18481564
N       15.09199536      10.06177918      12.02257787      -0.00097826      -0.00097383      -0.02105781
N       12.95691854      10.10087264      11.32007079      -0.00323612      -0.00170621       0.00682798
N       10.94602229      10.36823583      15.59440911       0.04929190       0.01175529       0.07491356
O       15.39047523      10.19937883      15.31267467       0.54564158      -0.04848189      -0.59139315
16
Lattice="25.506209070429115 0.0 0.0 0.0 20.404861172890985 0.0 0.0 0.0 26.528226627444447" Properties=species:S:1:pos:R:3:forces:R:3 =T label=10 uncertainty=0.010561276806757223 iteration=138 energy=-2685.3250357632705 pbc="T T T"
H       14.23222454      10.26967888      16.11149627       0.00106740      -0.00021918      -0.00032160
H       14.63077279       9.98450295       9.95731837      -0.00036732      -0.00008565      -0.00052815
H       12.16774150      10.10519929      10.69572746      -0.00025390      -0.00000959       0.00019052
H       10.03366357      10.19811430      15.19924398       0.00083593      -0.00010409       0.00032966
H       11.08488649      10.16198278      16.56200573       0.00094529       0.00057672       0.00036614
C       14.39456930      10.19151649      14.50405541       0.00073539      -0.00004938      -0.00040347
C       12.00227824      10.26818289      14.73673518       0.00077935      -0.00010572       0.00012360
C       12.88751705      10.16193028      12.68760047       0.00032912      -0.00003271      -0.00003632
C       14.23166969      10.13594033      13.11083520       0.00042743       0.00001732      -0.00037740
C       14.30634742      10.04215404      10.98353053      -0.00011168      -0.00003457      -0.00043449
N       13.24895735      10.25610698      15.26156342       0.00090698      -0.00008257      -0.00012314
N       11.76615919      10.22238469      13.42432511       0.00047749      -0.00008503       0.00017937
N       15.09206125      10.06183631      12.02377738       0.00014701       0.00000623      -0.00060875
N       12.95710588      10.10097063      11.31966649      -0.00004839      -0.00004108      -0.00005391
N       10.94318152      10.36753914      15.59002770       0.00088305      -0.00013194       0.00020923
O       15.35852081      10.20221733      15.34733079       0.00091222      -0.00009993      -0.00060315
16
Lattice="25.506209070429115 0.0 0.0 0.0 20.404861172890985 0.0 0.0 0.0 26.528226627444447" Properties=species:S:1:pos:R:3:forces:R:3 =T label=11 uncertainty=0.011904648365366135 iteration=138 energy=-2685.55682425153 pbc="T T T"
H       14.37134945      10.26550890      16.10981085       2.23220635      -0.06707451      -0.02737629
H       14.63169982       9.98454799       9.95787732       0.01450829       0.00064555       0.00844510
H       12.16970580      10.10489965      10.69365355       0.03124039      -0.00482598      -0.03308768
H       10.02835660      10.19635726      15.20126136      -0.08427978      -0.02826716       0.03268234
H       11.08724175      10.16263174      16.55625527       0.03874233       0.01093514      -0.09185037
C       14.35787618      10.19209040      14.50611247      -0.58772605       0.00915345       0.03262689
C       11.99206304      10.26669266      14.72318774      -0.16304168      -0.02398848      -0.21713844
C       12.88155323      10.16201929      12.68642643      -0.09532352       0.00138435      -0.01887261
C       14.23025126      10.13645432      13.11446077      -0.02236042       0.00824868       0.05776220
C       14.30750092      10.04206244      10.98626379       0.01839083      -0.00150003       0.04340386
N       13.21796069      10.25645217      15.25053218      -0.49618758       0.00545339      -0.17701294
N       11.75800143      10.22347784      13.40754715      -0.13035673       0.01745013      -0.26887638
N       15.09277028      10.06152640      12.02644560       0.01152440      -0.00496461       0.04218843
N       12.95816151      10.10121920      11.31808156       0.01688993       0.00393972      -0.02547582
N       10.93737542      10.36850707      15.58522595      -0.09221305       0.01541995      -0.07678359
O       15.31840441      10.20564585      15.39138481      -0.64236237       0.05487432       0.70583113
16
Lattice="25.506209070429115 0.0 0.0 0.0 20.404861172890985 0.0 0.0 0.0 26.528226627444447" Properties=species:S:1:pos:R:3:forces:R:3 =T label=12 uncertainty=0.012656307640316255 iteration=138 energy=-2686.0205351916215 pbc="T T T"
H       14.51653562      10.26274071      16.12184425       2.41344063      -0.04616062       0.19975941
H       14.63328607       9.98529691       9.96057695       0.02602492       0.01238238       0.04438266
H       12.17321578      10.10384314      10.68790531       0.05811725      -0.01759507      -0.09540694
H       10.01822510      10.19480510      15.20334136      -0.16757895      -0.02586361       0.03491358
H       11.08999692      10.16141865      16.54866917       0.04676156      -0.01969598      -0.12571333
C       14.31846204      10.19355034      14.51415315      -0.65415743       0.02420028       0.13330592
C       11.97763235      10.26808784      14.70908652      -0.23905194       0.02312381      -0.23415680
C       12.87415913      10.16192681      12.68198149      -0.12257795      -0.00159225      -0.07393280
C       14.22335973      10.13640561      13.12100262      -0.11422082      -0.00081539       0.10834468
C       14.30948458      10.04198937      10.98869818       0.03282158      -0.00124197       0.04002929
N       13.18596229      10.25613430      15.24615331      -0.53074439      -0.00535675      -0.07278352
N       11.74681140      10.22380138      13.39105114      -0.18545805       0.00530364      -0.27386324
N       15.09239887      10.06104726      12.03288107      -0.00605674      -0.00796003       0.10637035
N       12.95968463      10.10141638      11.31385748       0.02527735       0.00322347      -0.07029447
N       10.92798134      10.37039423      15.57862861      -0.15522778       0.03128320      -0.10941432
O       15.29486084      10.20712259      15.41421038      -0.38996655       0.02440835       0.37827432
16
Lattice="25.506209070429115 0.0 0.0 0.0 20.404861172890985 0.0 0.0 0.0 26.528226627444447" Properties=species:S:1:pos:R:3:forces:R:3 =T label=13 uncertainty=0.012486666484148635 iteration=138 energy=-2686.3754299230573 pbc="T T T"
H       14.65829889      10.26199313      16.15588040       1.52457156      -0.00821225       0.36541344
H       14.63886758       9.98667025       9.96785819       0.05973215       0.01467746       0.07783016
H       12.17780641      10.10212580      10.67773241       0.04921663      -0.01848961      -0.10928264
H        9.99945301      10.19272577      15.20419614      -0.20103736      -0.02247651       0.00960404
H       11.08960990      10.15948568      16.53592222      -0.00319924      -0.02028605      -0.13672688
C       14.28329534      10.19484582      14.52986946      -0.37711276       0.01385048       0.16851940
C       11.95686952      10.27141620      14.69619200      -0.22236493       0.03568811      -0.13837403
C       12.86402247      10.16137652      12.67418180      -0.10868666      -0.00595070      -0.08387068
C       14.20720723      10.13625663      13.13062746      -0.17332569      -0.00159668       0.10304668
C       14.31194746      10.04235062      10.99318133       0.02631737       0.00384911       0.04784856
N       13.15963988      10.25533636      15.25361725      -0.28187627      -0.00861038       0.08022619
N       11.73175185      10.22395860      13.37772586      -0.16135799       0.00165113      -0.14296729
N       15.08756299      10.06137477      12.04511208      -0.05192534       0.00350923       0.13096306
N       12.96098340      10.10097152      11.30748165       0.01393150      -0.00482086      -0.06860426
N       10.91108270      10.37343569      15.56766213      -0.18078592       0.03259302      -0.11762420
O       15.29941346      10.20592215      15.39795963       0.05011702      -0.01302010      -0.17568272
16
Lattice="25.506209070429115 0.0 0.0 0.0 20.404861172890985 0.0 0.0 0.0 26.528226627444447" Properties=species:S:1:pos:R:3:forces:R:3 =T label=14 uncertainty=0.014789863345398334 iteration=138 energy=-2686.614056886705 pbc="T T T"
H       14.79405588      10.26052491      16.18795760       0.98634545      -0.01088840       0.23185025
H       14.65235339       9.98675646       9.97921162       0.09777043       0.00048885       0.08209663
H       12.18342434      10.10116052      10.66499270       0.04076754      -0.00700980      -0.09248579
H        9.97368036      10.18631317      15.20245644      -0.18624233      -0.04679182      -0.01217403
H       11.08333544      10.16219026      16.51834422      -0.04456705       0.02019344      -0.12716029
C       14.25577432      10.19563716      14.54474787      -0.19897532       0.00571028       0.10740424
C       11.93670671      10.27354948      14.68763930      -0.14543839       0.01541096      -0.06178602
C       12.85164192      10.16155365      12.66793064      -0.08961780       0.00130054      -0.04532937
C       14.18585661      10.13722693      13.14067222      -0.15463737       0.00705521       0.07252955
C       14.31469400      10.04291948      11.00348768       0.01984764       0.00407160       0.07453102
N       13.13963923      10.25544909      15.26695002      -0.14421520       0.00084070       0.09663420
N       11.71565319      10.22518207      13.36764862      -0.11635696       0.00886816      -0.07291406
N       15.07710741      10.06268799      12.06584604      -0.07581617       0.00948580       0.15009887
N       12.96163423      10.10061485      11.30365813       0.00470598      -0.00258989      -0.02779908
N       10.88890437      10.37525438      15.55495393      -0.16005843       0.01303369      -0.09190390
O       15.31598073      10.20368788      15.36071469       0.12118564      -0.01633450      -0.27122553
16
Lattice="25.506209070429115 0.0 0.0 0.0 20.404861172890985 0.0 0.0 0.0 26.528226627444447" Properties=species:S:1:pos:R:3:forces:R:3 =T label=15 uncertainty=0.01837269700068881 iteration=138 energy=-2686.775748862653 pbc="T T T"
H       14.92835264      10.25665210      16.19676386       0.60520495      -0.01767051       0.03821063
H       14.67439122       9.98587109       9.99837140       0.09918757      -0.00408133       0.08621336
H       12.19274293      10.10070655      10.64975587       0.04200810      -0.00206694      -0.06863336
H        9.94837789      10.17580620      15.19533381      -0.11291155      -0.04748306      -0.03172687