29
Lattice="27.023740232403057 0.0 0.0 0.0 32.03352076481562 0.0 0.0 0.0 20.95149101277834" Properties=species:S:1:pos:R:3:forces:R:3:charge:R:1 =T label=0 uncertainty=0.0 iteration=80 energy=-4666.929046376 stress="0.0 0.0 0.0 0.0 0.0 0.0 0.0 0.0 0.0" pbc="T T T"
H       12.38579086      10.90228846      10.90235977       0.00164000       0.00167000      -0.00157000       0.51000000
H       14.56147219      10.00000028      10.60241822       0.00080000      -0.00422000       0.00188000       0.34000000
H       16.45445817      11.59126542      10.22028398       0.00045000      -0.00196000       0.00272000       0.31000000
H       17.02374028      13.96978637      10.01215186      -0.00056000       0.00540000       0.00173000       0.48000000
H       15.84039772      15.26496568      10.13193154       0.00139000       0.00111000      -0.00132000       0.47000000
H       13.38007534      15.63687486      10.49265336       0.00315000       0.00296000      -0.00363000       0.45000000
H       14.02445642      22.03352049      10.00000000      -0.00296000       0.00193000       0.00097000       0.34000000
H       11.66687830      21.09285615      10.40903596       0.00480000      -0.00446000       0.00258000       0.50000000
H        9.99999995      16.39808741      10.95149101       0.00270000      -0.00044000       0.00125000       0.49000000
H       11.18218049      15.10934684      10.85452751      -0.00580000       0.00658000      -0.00079000       0.47000000
C       12.84092469      12.90566485      10.72521491      -0.00019000      -0.00224000      -0.00082000       0.77000000
C       14.42670479      11.07094494      10.57019483      -0.00020000       0.00260000       0.00083000      -0.08000000
C       15.44406754      11.93770795      10.36455594       0.00068000      -0.00006000       0.00124000      -0.39000000
C       15.11840445      13.34250597      10.34662147      -0.00270000      -0.00190000      -0.00068000       0.42000000
C       14.28982955      17.47995551      10.23901461       0.00058000       0.00255000      -0.00094000       0.60000000
C       11.87687978      17.06390414      10.63087035      -0.00175000      -0.00451000       0.00098000       0.59000000
C       12.56098577      19.16876273      10.39765930      -0.00339000      -0.00768000       0.00037000       0.34000000
C       13.91006493      18.85749300      10.21485754       0.00467000      -0.00117000      -0.00252000       0.04000000
C       13.79780831      20.98512742      10.09899579       0.00510000       0.00107000      -0.00114000       0.06000000
N       13.15737269      11.53101037      10.74884819       0.00116000       0.00368000      -0.00141000      -0.66000000
N       13.86455695      13.77633594      10.52211116      -0.00213000      -0.00070000      -0.00087000      -0.57000000
N       16.07318022      14.25914517      10.15152118       0.00121000      -0.00086000      -0.00108000      -0.87000000
N       13.17520836      16.64490569      10.46256702      -0.00027000       0.00297000      -0.00282000      -0.62000000
N       11.51738297      18.33845387      10.60486955      -0.00762000      -0.00334000       0.00334000      -0.57000000
N       14.66186538      20.01018722      10.03040061       0.00359000       0.00271000      -0.00348000      -0.48000000
N       12.50093902      20.53832387      10.32093494      -0.00326000      -0.00240000       0.00267000      -0.65000000
N       10.94974930      16.10001550      10.82986761       0.00069000       0.00258000       0.00251000      -0.93000000
O       11.66666211      13.24150428      10.88771467      -0.00358000      -0.00086000      -0.00035000      -0.69000000
O       15.41028787      16.97674093      10.09396744       0.00179000      -0.00102000       0.00035000      -0.67000000
29
Lattice="27.023740232403057 0.0 0.0 0.0 32.03352076481562 0.0 0.0 0.0 20.95149101277834" Properties=species:S:1:pos:R:3:forces:R:3 =T label=1 uncertainty=0.021015114042735806 iteration=80 energy=-4666.918741443686 pbc="T T T"
H       12.38274040      10.88402299      10.90352713       0.00054338       0.00243632      -0.00017468
H       14.56765013      10.00171881      10.60451220      -0.00093292      -0.00089016      -0.00028937
H       16.44584400      11.60623052      10.22265406       0.00120593      -0.00307164      -0.00030295
H       16.99584429      14.01177301      10.01219920       0.00470770      -0.00649947      -0.00007212
H       15.79666647      15.29581109      10.13201539       0.00654168      -0.00472244      -0.00000527
H       13.37818860      15.61162549      10.48885783       0.00038233       0.00406836       0.00054047
H       14.03078394      22.01314115      10.00088694      -0.00152712       0.00330329      -0.00005929
H       11.67297623      21.08363359      10.41072285      -0.00104879       0.00168967      -0.00026039
H       10.00385737      16.39793639      10.94988614      -0.00005950       0.00029688       0.00014050
H       11.16408760      15.09047084      10.85483701       0.00265207       0.00286441      -0.00003950
C       12.81870697      12.89219074      10.72652924       0.00333856       0.00148443      -0.00015679
C       14.41851609      11.07238762      10.57239723       0.00076540      -0.00087936      -0.00022111
C       15.43581988      11.95049698      10.36533867       0.00147790      -0.00244329      -0.00012751
C       15.09645304      13.35656868      10.34635362       0.00353890      -0.00244781       0.00002287
C       14.28712850      17.46262865      10.23726922       0.00051156       0.00282015       0.00023688
C       11.88080042      17.04377089      10.62871478      -0.00013578       0.00335742       0.00023743
C       12.55768247      19.15129063      10.39807145       0.00022538       0.00272668      -0.00002837
C       13.90937382      18.84194097      10.21330633       0.00022055       0.00285154       0.00018525
C       13.80141547      20.96703582      10.09928537      -0.00085587       0.00329572      -0.00003211
N       13.14926761      11.52668492      10.74937928       0.00141984       0.00083502      -0.00012052
N       13.83741938      13.77201019      10.52232491       0.00445278      -0.00001849      -0.00003926
N       16.03933399      14.28445931      10.15076896       0.00543491      -0.00402312       0.00007086
N       13.17708401      16.62064688      10.45905735      -0.00015025       0.00334498       0.00052520
N       11.51649217      18.32272249      10.60514495      -0.00006716       0.00281806      -0.00003416
N       14.66221350      19.99187522      10.02939602      -0.00018707       0.00347170       0.00012571
N       12.50237195      20.52391595      10.32210512      -0.00035856       0.00259682      -0.00017700
N       10.94061703      16.08962799      10.82903320       0.00065125       0.00216694       0.00020433
O       11.63721972      13.22042948      10.89019176       0.00418924       0.00304463      -0.00031640
O       15.41465883      16.97073041      10.09135658      -0.00070137       0.00105654       0.00039534
29
Lattice="27.023740232403057 0.0 0.0 0.0 32.03352076481562 0.0 0.0 0.0 20.95149101277834" Properties=species:S:1:pos:R:3:forces:R:3 =T label=2 uncertainty=0.018814809677345185 iteration=80 energy=-4666.9240466028505 pbc="T T T"
H       12.37916898      10.86983564      10.90460837      -0.00046905      -0.00098990       0.00009014
H       14.57339065      10.00892215      10.60621632       0.00071844       0.00164004       0.00015958
H       16.43872196      11.62732951      10.22435175      -0.00073972       0.00384077       0.00013563
H       16.96545357      14.05230979      10.01281010      -0.00385123       0.00413807       0.00018091
H       15.75659320      15.32494965      10.13202777      -0.00458200       0.00345466       0.00001867
H       13.37550657      15.58590152      10.48563457      -0.00033518      -0.00306521      -0.00035121
H       14.04179477      21.99220299      10.00103790       0.00206729      -0.00276629      -0.00008388
H       11.67977478      21.07245893      10.41232755       0.00084581      -0.00182518       0.00024194
H       10.00269851      16.39541517      10.94929984      -0.00059495      -0.00122554       0.00009499
H       11.14793731      15.07276612      10.85506934      -0.00135296      -0.00201983      -0.00003783
C       12.79821350      12.88459692      10.72737816      -0.00228423      -0.00024715       0.00003506
C       14.41522697      11.07962049      10.57342803      -0.00016163       0.00154084       0.00005046
C       15.42603926      11.96690036      10.36615196      -0.00129917       0.00267706       0.00009042
C       15.07394008      13.37246491      10.34628267      -0.00259388       0.00235970      -0.00002839
C       14.28372031      17.44474745      10.23587660      -0.00068845      -0.00233626      -0.00009065
C       11.88026539      17.02219980      10.62750747      -0.00043791      -0.00265240      -0.00005097
C       12.55703261      19.13431384      10.39815216       0.00031127      -0.00203017      -0.00003619
C       13.90764267      18.82301199      10.21231361      -0.00028042      -0.00263172      -0.00007719
C       13.80752485      20.94513609      10.09945761       0.00114375      -0.00303837      -0.00001268
N       13.13985120      11.52082502      10.75026933      -0.00101369      -0.00030487       0.00006366
N       13.80901547      13.77402490      10.52258586      -0.00348712       0.00086759       0.00001726
N       16.00490881      14.30964931      10.15046533      -0.00397114       0.00324901      -0.00002372
N       13.17763965      16.60118880      10.45582731      -0.00024422      -0.00227394      -0.00031162
N       11.51748631      18.30410447      10.60532216       0.00011733      -0.00216104       0.00004072
N       14.66367761      19.96851082      10.02871512       0.00047828      -0.00338350      -0.00008924
N       12.50492921      20.50677962      10.32319183       0.00074135      -0.00249759       0.00010008
N       10.93872705      16.07458299      10.82752673       0.00037467      -0.00224926      -0.00019642
O       11.61220769      13.20199407      10.89197671      -0.00272357      -0.00180411       0.00014002
O       15.41910689      16.96387981      10.08890708       0.00034641      -0.00115358      -0.00022031
29
Lattice="27.023740232403057 0.0 0.0 0.0 32.03352076481562 0.0 0.0 0.0 20.95149101277834" Properties=species:S:1:pos:R:3:forces:R:3 =T label=3 uncertainty=0.026445938215051326 iteration=80 energy=-4666.922480544326 pbc="T T T"
H       12.37596043      10.87975655      10.90417968       0.00013147       0.00358506      -0.00027008
H       14.57856329      10.03477165      10.60614558       0.00077337       0.00571669      -0.00021471
H       16.43773905      11.67911288      10.22352127      -0.00023637       0.00847958      -0.00019848
H       16.94060543      14.05663983      10.01617557      -0.00344639       0.00200432       0.00048588
H       15.73596857      15.34166157      10.13261159      -0.00200004       0.00476960      -0.00005334
H       13.37264349      15.57193357      10.48436409      -0.00036627      -0.00274079       0.00000815
H       14.07092899      21.97037021       9.99819990       0.00502776      -0.00489634      -0.00044695
H       11.68454496      21.05119812      10.41498574       0.00139523      -0.00325431       0.00023999
H        9.98988839      16.36517139      10.95363146      -0.00083971      -0.00413138       0.00051691
H       11.15494845      15.06318565      10.85315449       0.00092522      -0.00260499      -0.00006739
C       12.78932197      12.89687669      10.72607960      -0.00164549       0.00311594      -0.00012468
C       14.41830505      11.10149948      10.57239177       0.00061096       0.00469862      -0.00028137
C       15.41615887      11.99736780      10.36650200      -0.00164269       0.00570989       0.00002200
C       15.06162693      13.39501887      10.34573158      -0.00210086       0.00434519       0.00000378
C       14.27313968      17.42886258      10.23703001      -0.00046965      -0.00298219       0.00014031
C       11.86968321      17.00714933      10.62920510      -0.00027161      -0.00268648       0.00018748
C       12.56682920      19.12378384      10.39698087       0.00154304      -0.00288363      -0.00006098
C       13.90368473      18.80181518      10.21279869      -0.00039566      -0.00458748       0.00021723
C       13.82299104      20.91992480      10.09860128       0.00228180      -0.00427740      -0.00008437
N       13.13689101      11.52841413      10.74958269      -0.00003811       0.00250416      -0.00021218
N       13.78874194      13.79144122      10.52222123      -0.00297116       0.00350378       0.00003535
N       15.98727314      14.33125182      10.15054364      -0.00230258       0.00455101       0.00005022
N       13.16851808      16.59071957      10.45581010      -0.00067193      -0.00251039       0.00010464
N       11.51602204      18.29631486      10.60616081       0.00024466      -0.00227437       0.00016718
N       14.67332024      19.93750677      10.02792192       0.00225018      -0.00567187      -0.00011520
N       12.51989188      20.48335509      10.32291176       0.00334826      -0.00421792      -0.00017584
N       10.95247934      16.05301565      10.82630369       0.00069961      -0.00341313       0.00016768
O       11.60266247      13.20031750      10.89111917      -0.00140579       0.00138657      -0.00012242
O       15.41601621      16.95085042      10.08939772       0.00007268      -0.00229524       0.00007208
29
Lattice="27.023740232403057 0.0 0.0 0.0 32.03352076481562 0.0 0.0 0.0 20.95149101277834" Properties=species:S:1:pos:R:3:forces:R:3 =T label=4 uncertainty=0.027001892688299514 iteration=80 energy=-4666.90826451433 pbc="T T T"
H       12.37742869      10.90012574      10.90258961       0.01206268      -0.03644464       0.00105651
H       14.58225960      10.06608721      10.60482977       0.00341096      -0.06123889       0.00288415
H       16.43495047      11.72061399      10.22272483       0.02454021      -0.01776538      -0.00355328
H       16.92182859      14.07432985      10.01846147       0.02549880      -0.14046502       0.00206819
H       15.72507976      15.37302558      10.13203527       0.04517723      -0.12632222       0.00237604
H       13.37182275      15.55297752      10.48459487      -0.02587674       0.09259463       0.00016077
H       14.09514155      21.94312033       9.99626825       0.03868283       0.05805150      -0.00968095
H       11.69349911      21.03524247      10.41573445      -0.04167480       0.05049387       0.00341682
H        9.98827203      16.34909597      10.95549812      -0.05100070      -0.07307693       0.01234446
H       11.15627885      15.04756354      10.85353701       0.06757559       0.05571339      -0.01308415
C       12.77917337      12.91413743      10.72575807       0.03431750      -0.03416549      -0.00268634
C       14.42162320      11.12815306      10.57074877       0.01474363      -0.06942403       0.00081248
C       15.40740241      12.02794080      10.36657779       0.01175576      -0.04551709      -0.00034219
C       15.04990590      13.41935776      10.34582718       0.02389569      -0.05429711      -0.00053853
C       14.27341897      17.41051059      10.23757068      -0.04080219       0.05549027       0.00387224
C       11.87154906      16.99095905      10.62984227      -0.05102325       0.05707345       0.00418057
C       12.57466094      19.10546227      10.39690802      -0.01162842       0.07724258      -0.00340213
C       13.90318029      18.77482399      10.21396808      -0.04211078       0.06106474       0.00269172
C       13.83386226      20.89664221      10.09837221      -0.00624796       0.06020573      -0.00266007
N       13.13703787      11.54288349      10.74841133       0.01401895      -0.05595173       0.00066190
N       13.77220853      13.81027643      10.52271001       0.02108029      -0.03658592      -0.00050790
N       15.97388908      14.35908923      10.15081657       0.04370901      -0.08364339      -0.00092198
N       13.16776905      16.57362429      10.45626159      -0.04768953       0.07979024       0.00345979
N       11.52002549      18.28001383      10.60686508      -0.04938965       0.08450512       0.00171514
N       14.68541925      19.90687907      10.02740707      -0.01667668       0.04373107       0.00013611
N       12.53713899      20.46059765      10.32202531      -0.00600696       0.05028183      -0.00258082
N       10.95349472      16.03536382      10.82758324       0.02110146       0.02612760      -0.00560055
O       11.59392280      13.20934744      10.89078735       0.03501029      -0.04127955      -0.00165746
O       15.41838242      16.93771298      10.08952034      -0.03506546       0.03182520       0.00545840
29
Lattice="27.023740232403057 0.0 0.0 0.0 32.03352076481562 0.0 0.0 0.0 20.95149101277834" Properties=species:S:1:pos:R:3:forces:R:3 =T label=5 uncertainty=0.01696199480407512 iteration=80 energy=-4666.84620536806 pbc="T T T"
H       12.37344091      10.91237274      10.90222667       0.02351991      -0.06365698       0.00207980
H       14.58112459      10.08662148      10.60386167       0.00831758      -0.07751770       0.00143087
H       16.42670290      11.72657543      10.22391793       0.00885364      -0.06561143      -0.00146096
H       16.91322950      14.12139541      10.01777502       0.03253397      -0.08365791      -0.00500677
H       15.70996871      15.41538300      10.13123369       0.03271088      -0.18612069       0.00542375
H       13.38047202      15.52194097      10.48454448      -0.02825016       0.10758642      -0.00145852
H       14.08226862      21.92365954       9.99949893      -0.01310328       0.07817230      -0.00294611
H       11.70745607      21.01841774      10.41458488      -0.04276002       0.07091368      -0.00046349
H       10.00532931      16.37354300      10.95136903      -0.04243784      -0.01037662       0.00406244
H       11.13367565      15.02890125      10.85791516       0.02421778       0.06134841      -0.00768877
C       12.76765396      12.92559924      10.72666115       0.02704036      -0.05642987       0.00151911
C       14.41673462      11.15143760      10.57046642       0.01829299      -0.07976970       0.00015298
C       15.40344385      12.04321647      10.36669325       0.00926570      -0.07836207       0.00042558
C       15.04188819      13.43756836      10.34600750       0.01737742      -0.08307911       0.00078218
C       14.28708928      17.39187536      10.23627642      -0.02157298       0.06408474      -0.00000616
C       11.88862978      16.97183398      10.62844320      -0.04865209       0.06304550       0.00135720
C       12.57855509      19.07958077      10.39804737      -0.01703160       0.07326516      -0.00361017
C       13.91726104      18.75429192      10.21307438      -0.03106710       0.06444208       0.00058944
C       13.83593865      20.87648399      10.09926519      -0.03142024       0.07177810       0.00016177
N       13.13239642      11.56159615      10.74818244       0.02740444      -0.07839189       0.00077298
N       13.76508377      13.82252834      10.52289107       0.01296447      -0.05940696       0.00268355
N       15.95922935      14.38716734      10.15112516       0.03282139      -0.10783434      -0.00094451
N       13.18373257      16.54687491      10.45510561      -0.03505992       0.08430210      -0.00014152
N       11.53657839      18.25166539      10.60629086      -0.03627718       0.06341461      -0.00104105
N       14.69101979      19.89218742      10.02736187      -0.02393869       0.06925120       0.00004825
N       12.53918311      20.44375714      10.32288418      -0.02696474       0.05828975      -0.00114401
N       10.94640751      16.02660236      10.82946167       0.00295279       0.03686720      -0.00681756
O       11.58218763      13.22316735      10.89134633       0.02290091      -0.05840640       0.00488450
O       15.43011857      16.92702036      10.08769658      -0.03499645       0.02858826       0.00552402
29
Lattice="27.023740232403057 0.0 0.0 0.0 32.03352076481562 0.0 0.0 0.0 20.95149101277834" Properties=species:S:1:pos:R:3:forces:R:3 =T label=6 uncertainty=0.016322107156541876 iteration=80 energy=-4666.779808693503 pbc="T T T"
H       12.36612091      10.93192696      10.90158793       0.00865235      -0.10215590       0.00442793
H       14.57850134      10.11050321      10.60344778       0.00720363      -0.08043668       0.00479115
H       16.42387738      11.74662037      10.22441437      -0.00248212      -0.09291068       0.00506356
H       16.90315777      14.14741470      10.01932123       0.04654371       0.00262496      -0.01142379
H       15.69981487      15.47274027      10.12955617       0.03626132      -0.39391600       0.01212923
H       13.38920866      15.48891917      10.48496209      -0.04098226       0.24340260      -0.01195718
H       14.08609637      21.89956377      10.00044205      -0.09345037       0.09052692       0.00927249
H       11.72063555      20.99651074      10.41474593      -0.05432432       0.02823935       0.00595219
H       10.01855645      16.37683821      10.95009420      -0.00170770       0.02672038      -0.00482192
H       11.12616131      15.00986282      10.86028522      -0.00933530       0.02030406      -0.00408954
C       12.75930094      12.94292980      10.72617753       0.00284076      -0.07594297       0.00253787
C       14.41099432      11.17601122      10.57044461       0.00136349      -0.09272643       0.00521387
C       15.40055513      12.06729551      10.36658263      -0.00487338      -0.10408956       0.00591427
C       15.03644644      13.46311794      10.34577701      -0.01923195      -0.11914904       0.00630895
C       14.29393770      17.37215569      10.23623309       0.04353839       0.10712496      -0.01574771
C       11.90367976      16.95238382      10.62801630      -0.04148282       0.07159742      -0.00167607
C       12.58377811      19.05691295      10.39917290      -0.01708194       0.05740380      -0.00237963
C       13.92690140      18.73445103      10.21287476      -0.01518228       0.09600454      -0.00528048
C       13.84552944      20.85433787      10.09923173      -0.06584993       0.07073357       0.00547937
N       13.12394733      11.58575049      10.74793830       0.01435238      -0.09027661       0.00269844
N       13.76106198      13.84081079      10.52204958       0.00923498      -0.06822750      -0.00073536
N       15.94906387      14.42041146      10.15141354       0.03788604      -0.14806893      -0.00355663
N       13.19464506      16.52094921      10.45511612      -0.02223061       0.13446909      -0.00894014
N       11.54781405      18.23201328      10.60661761      -0.04356581       0.06027752       0.00101471
N       14.69837696      19.87091077      10.02733775      -0.02942480       0.10132947      -0.00280338
N       12.54743100      20.42573996      10.32325840      -0.05306496       0.03709960       0.00559845
N       10.94550533      16.01517719      10.83156756      -0.00758845       0.03180902      -0.00596234
O       11.57502399      13.24117760      10.88982246       0.00926954      -0.07111039       0.00199827
O       15.44094467      16.91820514      10.08597205      -0.01699682       0.03267730      -0.00107157
29
Lattice="27.023740232403057 0.0 0.0 0.0 32.03352076481562 0.0 0.0 0.0 20.95149101277834" Properties=species:S:1:pos:R:3:forces:R:3 =T label=7 uncertainty=0.014707054370896635 iteration=80 energy=-4666.654294757427 pbc="T T T"
H       12.36411965      10.95351023      10.90064400       0.02282390      -0.11001695       0.00464024
H       14.57680931      10.12742458      10.60251525       0.03289020      -0.06251282      -0.00363295
H       16.42433177      11.76607005      10.22343210       0.03598643      -0.04752495      -0.00714584
H       16.89322225      14.14684139      10.02178791       0.06182368       0.06534403      -0.01882817
H       15.69223169      15.55586231      10.12696672       0.17034434      -0.87028289       0.02252722
H       13.39787405      15.43804348      10.48742150      -0.12902254       0.57956212      -0.01388394
H       14.10574000      21.88042303       9.99850458      -0.06536494       0.06982323       0.00564417
H       11.73206853      20.99041361      10.41355498      -0.06131621      -0.00234420       0.00563877
H       10.01915115      16.37090235      10.95112783      -0.01969826       0.02225407      -0.00302644
H       11.12841971      15.00529008      10.86109454      -0.01499848       0.00634780       0.00009621
C       12.75845539      12.95901564      10.72561692       0.00170561      -0.08692421       0.00742856
C       14.41065270      11.19563978      10.56937176       0.02019127      -0.05634702      -0.00137293
C       15.40140511      12.08919929      10.36539977       0.01156030      -0.04988713      -0.00144111
C       15.04051010      13.48828743      10.34443927      -0.06572784      -0.11080615       0.01403457
C       14.28496114      17.34970526      10.23949121       0.10430631       0.12343901      -0.02362446
C       11.91244508      16.93732178      10.62837690      -0.04721079       0.08263326      -0.00091123
C       12.58737356      19.04475715      10.39969524      -0.01726837       0.04122537      -0.00159189
C       13.93015386      18.71421249      10.21396719      -0.02146081       0.09285881      -0.00254870
C       13.85935112      20.83940868      10.09809089      -0.06191557       0.06528274       0.00517330
N       13.12080466      11.60480250      10.74736417       0.01437797      -0.08926945       0.00387083
N       13.75908788      13.85518510      10.52216370       0.02638654      -0.08183935       0.00132110
N       15.94100710      14.45178894      10.15216759       0.03311170      -0.10433014      -0.00350473
N       13.19943729      16.49270944      10.45696114      -0.05940233       0.19846061      -0.00434744
N       11.55697198      18.21921413      10.60644379      -0.05493218       0.06067251       0.00156872
N       14.70454283      19.84958414      10.02791248      -0.04649821       0.09058158       0.00222572
N       12.55856655      20.41787104      10.32211666      -0.03550298       0.04861004       0.00083209
N       10.94724065      16.00836716      10.83283786      -0.02142048       0.01072623      -0.00220655
O       11.57322716      13.25618170      10.88927798       0.01871082      -0.07923145       0.00790427
O       15.44464329      16.91133501      10.08614748      -0.03590727       0.05017869       0.00385808
29
Lattice="27.023740232403057 0.0 0.0 0.0 32.03352076481562 0.0 0.0 0.0 20.95149101277834" Properties=species:S:1:pos:R:3:forces:R:3 =T label=8 uncertainty=0.006857734706634584 iteration=80 energy=-4666.472082214676 pbc="T T T"
H       12.36124485      10.96678350      10.90007873       0.02165679      -0.07245649       0.00455214
H       14.57272899      10.13491076      10.60300776       0.04378213      -0.01704517      -0.01194625
H       16.41993916      11.77166313      10.22435680       0.06030292      -0.01610982      -0.01602054
H       16.88566351      14.13885780      10.02410621       0.02089367       0.12833851      -0.01450506
H       15.67176635      15.66086943      10.12422439       0.22665916      -0.90766213       0.02054309
H       13.41340202      15.36859373      10.48905394      -0.19857125       0.84833062      -0.01303684
H       14.11361721      21.87198447       9.99782900      -0.01406975       0.01293993       0.00055135
H       11.73945064      20.99069229      10.41291360      -0.02528910       0.01011554      -0.00324203
H       10.02161620      16.36797191      10.95151842      -0.03315265       0.01377050       0.00032348
H       11.13047815      15.00438256      10.86103665      -0.02285535      -0.00456405       0.00699335
C       12.75822982      12.96947318      10.72468500       0.02004794      -0.06636148       0.00778676
C       14.40813247      11.20242166      10.56956601       0.03089088      -0.00561285      -0.00722427
C       15.39999420      12.09518868      10.36560049       0.04653514      -0.00166310      -0.01081401
C       15.04841600      13.50164579      10.34274896      -0.06827435      -0.04158237       0.01357003
C       14.27250979      17.33487864      10.24230290       0.11209956       0.06245985      -0.01759455
C       11.91813508      16.92736731      10.62849573      -0.04087364       0.03825370       0.00331897
C       12.58941907      19.03976323      10.39990526      -0.01713464      -0.00084467       0.00137926
C       13.93274222      18.70303890      10.21426413      -0.01060388       0.02755143       0.00202766
C       13.86679461      20.83154093      10.09747293      -0.01539264       0.02811862       0.00035141
N       13.11904457      11.61556921      10.74688400       0.03091970      -0.06106928       0.00078852
N       13.75592645      13.86500755      10.52197407       0.05112698      -0.10106110       0.00420665
N       15.93697339      14.46449501      10.15259340      -0.01560878       0.04527816      -0.00026049
N       13.20663277      16.46891572      10.45746231      -0.06005105       0.11105908       0.00561603
N       11.56360333      18.21185854      10.60627688      -0.01413397       0.01194457      -0.00159921
N       14.71010061      19.83869733      10.02763610      -0.03931554       0.02983428       0.00715169
N       12.56283804      20.41202273      10.32203555       0.01796170       0.02529837      -0.00743507