29
Lattice="27.023740323803874 0.0 0.0 0.0 32.03352020938605 0.0 0.0 0.0 20.951491012854316" Properties=species:S:1:pos:R:3:forces:R:3:charge:R:1 =T label=0 uncertainty=0.0 iteration=67 energy=-4692.056919637 stress="0.0 0.0 0.0 0.0 0.0 0.0 0.0 0.0 0.0" pbc="T T T"
H       12.36784714      10.91343593      10.90168932      -0.00064000      -0.00086000      -0.00033000       0.49000000
H       14.55533785      10.00986643      10.60671328       0.00060000       0.00146000       0.00079000       0.33000000
H       16.45543108      11.61288785      10.22531233      -0.00094000      -0.00080000       0.00090000       0.30000000
H       17.01809237      14.00518317      10.01349276      -0.00096000      -0.00285000       0.00062000       0.46000000
H       15.81518462      15.31653939      10.13163822      -0.00063000       0.00317000      -0.00102000       0.44000000
H       13.39988378      15.60048451      10.48758310       0.00260000       0.00601000      -0.00056000       0.42000000
H       14.02856408      22.02954795       9.99878481      -0.00181000       0.00139000       0.00068000       0.32000000
H       11.66412192      21.07821647      10.41590805      -0.00186000       0.00828000      -0.00068000       0.48000000
H       10.00602628      16.37995616      10.95469659      -0.00224000       0.00150000       0.00031000       0.47000000
H       11.19331431      15.07260413      10.85423419       0.00358000      -0.00747000      -0.00072000       0.44000000
C       12.82360252      12.92590981      10.72335023      -0.00775000      -0.00273000       0.00074000       0.68000000
C       14.41654392      11.08849912      10.57218522       0.00381000      -0.00295000      -0.00028000      -0.10000000
C       15.43747380      11.96320642      10.36656729       0.00280000       0.00121000       0.00005000      -0.37000000
C       15.11056762      13.36707545      10.34458917       0.00100000      -0.00247000       0.00003000       0.36000000
C       14.30547634      17.46291337      10.23817655      -0.00022000       0.00121000      -0.00040000       0.53000000
C       11.88822980      17.04042328      10.63036751       0.00534000       0.00520000      -0.00087000       0.52000000
C       12.56560687      19.14954228      10.39784786       0.00188000       0.00376000       0.00103000       0.30000000
C       13.92498208      18.84205252      10.21133769      -0.00070000      -0.00092000      -0.00047000       0.04000000
C       13.80278073      20.97282618      10.09832535      -0.00081000      -0.00545000       0.00049000       0.03000000
N       13.14507693      11.54677066      10.74719302      -0.00280000      -0.00276000       0.00010000      -0.59000000
N       13.84601871      13.79975220      10.51886367       0.00005000       0.00030000      -0.00010000      -0.51000000
N       16.05904685      14.29354892      10.14877654      -0.00539000       0.00116000       0.00122000      -0.80000000
N       13.19085515      16.62421175      10.45850243       0.00341000      -0.00149000      -0.00024000      -0.55000000
N       11.51984217      18.32186019      10.60709040       0.00917000       0.00136000      -0.00079000      -0.53000000
N       14.67735003      19.99404197      10.02644078      -0.00565000      -0.00535000       0.00127000      -0.45000000
N       12.50623571      20.52333183      10.32204537      -0.00168000      -0.00026000       0.00083000      -0.59000000
N       10.96045074      16.07470874      10.83135516      -0.00042000      -0.00052000       0.00029000      -0.86000000
O       11.63901686      13.25671997      10.88853178       0.00253000      -0.00028000      -0.00111000      -0.63000000
O       15.44004106      16.96341469      10.09658637      -0.00227000       0.00115000      -0.00178000      -0.62000000
29
Lattice="27.023740323803874 0.0 0.0 0.0 32.03352020938605 0.0 0.0 0.0 20.951491012854316" Properties=species:S:1:pos:R:3:forces:R:3 =T label=1 uncertainty=0.011085908814533266 iteration=67 energy=-4692.058210011455 pbc="T T T"
H       12.36693272      10.91462600      10.90171693      -0.00069554       0.00084906       0.00002706
H       14.55923178      10.01780907      10.60686920       0.00273124       0.00566817       0.00011444
H       16.45017789      11.63577346      10.22530438      -0.00370957       0.01621634      -0.00000683
H       17.00242312      14.02987628      10.01338788      -0.01118343       0.01741049      -0.00006008
H       15.79043544      15.34203265      10.13170860      -0.01751327       0.01813180       0.00003876
H       13.40058904      15.58138643      10.48639710       0.00046226      -0.01369275      -0.00083102
H       14.03792036      22.01356125       9.99885214       0.00663676      -0.01130035       0.00004561
H       11.66888973      21.06810598      10.41620110       0.00338667      -0.00717051       0.00020969
H       10.00379019      16.37425195      10.95447442      -0.00162423      -0.00411482      -0.00014932
H       11.18374789      15.05891400      10.85474126      -0.00671269      -0.00966592       0.00034325
C       12.80940248      12.92925378      10.72421094      -0.01003865       0.00236695       0.00060384
C       14.41528662      11.09679550      10.57226399      -0.00094102       0.00593503       0.00006093
C       15.42873434      11.97903122      10.36701717      -0.00618446       0.01125192       0.00031445
C       15.10033097      13.38407651      10.34408056      -0.00726155       0.01209642      -0.00036478
C       14.30275020      17.44658052      10.23771254      -0.00198293      -0.01164117      -0.00032036
C       11.88778924      17.02602544      10.62999211      -0.00037605      -0.01023888      -0.00025780
C       12.56747524      19.13450256      10.39808060       0.00134414      -0.01062176       0.00015577
C       13.92787370      18.82482536      10.21089645       0.00202159      -0.01226397      -0.00030691
C       13.80882327      20.95304742      10.09860667       0.00430125      -0.01408082       0.00020060
N       13.13950541      11.55265569      10.74740297      -0.00393376       0.00416710       0.00014660
N       13.82799001      13.81010844      10.51947306      -0.01278118       0.00736325       0.00042680
N       16.04267928      14.31392762      10.14847519      -0.01160310       0.01447475      -0.00021932
N       13.18939938      16.60912722      10.45776077      -0.00103158      -0.01079438      -0.00052394
N       11.52223722      18.30962904      10.60693523       0.00169700      -0.00873025      -0.00010894
N       14.67995050      19.97661285      10.02640720       0.00182624      -0.01232831      -0.00002454
N       12.50997977      20.50892367      10.32256947       0.00266828      -0.01019361       0.00036795
N       10.96043033      16.06197415      10.83044016       0.00000596      -0.00901581      -0.00065637
O       11.61970150      13.25016433      10.89047727      -0.01368002      -0.00461007       0.00137231
O       15.44204850      16.94388233      10.09490675       0.00135316      -0.01380913      -0.00118302
29
Lattice="27.023740323803874 0.0 0.0 0.0 32.03352020938605 0.0 0.0 0.0 20.951491012854316" Properties=species:S:1:pos:R:3:forces:R:3 =T label=2 uncertainty=0.021806619811668114 iteration=67 energy=-4692.067540815653 pbc="T T T"
H       12.36420425      10.91659981      10.90197533      -0.00263867      -0.00180264       0.00052058
H       14.56165266      10.02777331      10.60723401       0.00256512       0.00673601       0.00027405
H       16.44519414      11.65823361      10.22534480      -0.00320319       0.01771324      -0.00014499
H       16.98406765      14.04894288      10.01392479      -0.01500013       0.01359857       0.00044083
H       15.76833292      15.36885907      10.13115989      -0.01669495       0.01591792      -0.00034760
H       13.39931320      15.55698590      10.48563427      -0.00280157      -0.01567880      -0.00062080
H       14.04751843      21.99855295       9.99885965       0.00779223      -0.01175422      -0.00002670
H       11.67407701      21.05818106      10.41653827       0.00328560      -0.00809383       0.00040625
H        9.99984575      16.36434993      10.95468539      -0.00247113      -0.00768385      -0.00001052
H       11.17815155      15.04667509      10.85439243      -0.00482510      -0.00938663      -0.00031091
C       12.79670936      12.93285097      10.72471012      -0.00992382      -0.00011560       0.00049465
C       14.41203153      11.10718003      10.57255710      -0.00282661       0.00675789       0.00035090
C       15.42075672      11.99597334      10.36727355      -0.00586997       0.01134035       0.00020067
C       15.08961440      13.40226274      10.34348235      -0.01012042       0.01068828      -0.00009183
C       14.29794632      17.42791555      10.23758244      -0.00346625      -0.01159452      -0.00040474
C       11.88469207      17.01096990      10.62993413      -0.00303383      -0.01009925      -0.00018126
C       12.56998066      19.12158185      10.39797598       0.00068738      -0.00888400      -0.00003757
C       13.92895844      18.80598628      10.21074382      -0.00060205      -0.01292347      -0.00008224
C       13.81518474      20.93147744      10.09896511       0.00416864      -0.01475846       0.00026553
N       13.13418369      11.55834434      10.74756344      -0.00364448       0.00110747       0.00024410
N       13.81033162      13.82108611      10.51981323      -0.01395007       0.00469082       0.00042152
N       16.02658022      14.33474025      10.14795727      -0.01401082       0.01278505      -0.00015110
N       13.18777877      16.59050058      10.45709584      -0.00120610      -0.01158443      -0.00083822
N       11.52411890      18.29531707      10.60689511      -0.00007347      -0.01003725       0.00004114
N       14.68179166      19.95976532      10.02638360       0.00142682      -0.01234234      -0.00011306
N       12.51386539      20.49581196      10.32300564       0.00327780      -0.00965716       0.00024306
N       10.96085841      16.04963639      10.82928661      -0.00094830      -0.00851670      -0.00094558
O       11.60216769      13.24557952      10.89190389      -0.01313761      -0.00558289       0.00103692
O       15.44037406      16.92641472      10.09359149      -0.00151470      -0.00745560      -0.00140176
29
Lattice="27.023740323803874 0.0 0.0 0.0 32.03352020938605 0.0 0.0 0.0 20.951491012854316" Properties=species:S:1:pos:R:3:forces:R:3 =T label=3 uncertainty=0.014650054838394972 iteration=67 energy=-4692.060524959797 pbc="T T T"
H       12.35918101      10.90610355      10.90348105       0.00816912       0.02929726      -0.00352000
H       14.56759660      10.03567557      10.60759544      -0.01289985      -0.01357110       0.00003536
H       16.44164543      11.68695663      10.22469198       0.00466041      -0.04573628       0.00171164
H       16.95897655      14.06967452      10.01453888       0.04788211      -0.05049596      -0.00049486
H       15.74178123      15.38376741      10.13095850       0.04857907      -0.02607125      -0.00015421
H       13.39157597      15.53968533      10.48449659       0.01719568       0.02620641       0.00166211
H       14.06047824      21.97974892       9.99875249      -0.02127221       0.03847627      -0.00016203
H       11.67752781      21.04442909      10.41749479      -0.00801818       0.02582217      -0.00122745
H        9.99756147      16.35357237      10.95416828      -0.00323719      -0.00057012       0.00328770
H       11.16826006      15.03182670      10.85404977       0.03152397       0.02857567      -0.00199508
C       12.78039604      12.92617865      10.72583201       0.03135648       0.02482371      -0.00335504
C       14.40726671      11.11471411      10.57333783       0.00718563      -0.01325651      -0.00102396
C       15.41191136      12.00993836      10.36763366       0.01171255      -0.02160336       0.00013004
C       15.06990178      13.41185879      10.34412244       0.04111792      -0.00866981      -0.00248646
C       14.29344458      17.41607613      10.23622759       0.00218959       0.01323206       0.00347914
C       11.87906634      16.99829737      10.62929821       0.00056008       0.02631628       0.00249318
C       12.56836684      19.10949680      10.39805112       0.00434896       0.02455883      -0.00034946
C       13.92550785      18.78923979      10.21061436       0.01016162       0.02620390      -0.00020923
C       13.82020201      20.91237197      10.09934171      -0.00849551       0.02414420      -0.00002195
N       13.12955602      11.55293069      10.74820470       0.00588966       0.02005582      -0.00151411
N       13.78743367      13.82029520      10.52089810       0.04317668       0.01534107      -0.00332493
N       16.00092352      14.34797615      10.14829878       0.05809392      -0.02312941      -0.00246415
N       13.18618366      16.57868912      10.45504892      -0.00233353       0.02221437       0.00435201
N       11.52104661      18.28192781      10.60706283       0.00480323       0.02456407       0.00002501
N       14.68415778      19.94195925      10.02598760      -0.00683960       0.03704138       0.00072054
N       12.51976175      20.48123948      10.32318008      -0.01083991       0.02783610      -0.00007927
N       10.95667905      16.03844404      10.82768934       0.01629521       0.01406611       0.00203488
O       11.58155354      13.23176866      10.89358321       0.03649824       0.02838526      -0.00357528
O       15.43846936      16.92713383      10.09045971      -0.00933604      -0.02881769       0.00848275
29
Lattice="27.023740323803874 0.0 0.0 0.0 32.03352020938605 0.0 0.0 0.0 20.951491012854316" Properties=species:S:1:pos:R:3:forces:R:3 =T label=4 uncertainty=0.011999395726116042 iteration=67 energy=-4692.039393762035 pbc="T T T"
H       12.35482100      10.89055426      10.90534500       0.00470244      -0.00939888      -0.00037238
H       14.57454799      10.04283230      10.60760121      -0.00115879      -0.03796541       0.00011492
H       16.43904260      11.71206023      10.22378015       0.01399659      -0.04098570      -0.00047379
H       16.93353984      14.09536430      10.01483920       0.04314554      -0.04900015      -0.00133692
H       15.71590605      15.39674073      10.13103934       0.02883168      -0.06400266       0.00340226
H       13.38233580      15.52608655      10.48356279       0.01275135       0.04685451      -0.00011166
H       14.07204900      21.95939526       9.99881176      -0.02352086       0.05401390      -0.00048984
H       11.68148838      21.03058299      10.41821947      -0.02312199       0.02499689       0.00102272
H        9.99889574      16.35253261      10.95254016      -0.00021164       0.00678868       0.00162597
H       11.15228204      15.01674595      10.85492753       0.02199052       0.03351775      -0.00188408
C       12.76368808      12.91314813      10.72757209       0.02540382      -0.00461619      -0.00152852
C       14.40335263      11.12152517      10.57392415       0.00537821      -0.03450642       0.00062526
C       15.40538149      12.02136652      10.36762127       0.01000190      -0.03877153       0.00103969
C       15.04791401      13.41637540      10.34544344       0.03390755      -0.03054176      -0.00101511
C       14.29200823      17.40903575      10.23437188       0.00317367       0.03407077       0.00093692
C       11.87812628      16.98471772      10.62801528      -0.00931591       0.04007259       0.00199294
C       12.56591753      19.09669617      10.39823321       0.00051453       0.03695398      -0.00102732
C       13.92005869      18.77540372      10.21069973       0.00889782       0.03708633      -0.00139036
C       13.82461593      20.89944830      10.09937925      -0.01441019       0.03673877       0.00005497
N       13.12638872      11.54229146      10.74900728       0.01447694      -0.01281996      -0.00086540
N       13.76435987      13.81241124      10.52262423       0.03421360      -0.00750550      -0.00147249
N       15.97029981      14.35970457      10.14955587       0.04822129      -0.04866408      -0.00114010
N       13.18700088      16.56726130      10.45273347      -0.00180563       0.04650075       0.00147867
N       11.51813548      18.26921901      10.60707218       0.00040028       0.03765961      -0.00074883
N       14.68768011      19.92262317      10.02558200      -0.00895664       0.06094930      -0.00086621
N       12.52552800      20.46658783      10.32322531      -0.00680335       0.03206036      -0.00099483
N       10.94828535      16.03081832      10.82653426       0.01432208       0.02873832      -0.00024434
O       11.56206538      13.21635273      10.89545126       0.01757067      -0.00194738      -0.00045792
O       15.44261816      16.94160143      10.08605970      -0.00976483      -0.00521016       0.00584412
29
Lattice="27.023740323803874 0.0 0.0 0.0 32.03352020938605 0.0 0.0 0.0 20.951491012854316" Properties=species:S:1:pos:R:3:forces:R:3 =T label=5 uncertainty=0.0096837201883975 iteration=67 energy=-4692.00958284466 pbc="T T T"
H       12.35252984      10.89437901      10.90556530       0.00240088      -0.07401844       0.00442265
H       14.57545293      10.06041451      10.60757871       0.01744622      -0.07204864       0.00053501
H       16.43236775      11.73289625      10.22395402       0.02602518      -0.03294674      -0.00344062
H       16.91304047      14.11645359      10.01552994       0.03627135      -0.06122392      -0.00267747
H       15.70193421      15.42496830      10.12947308       0.00885686      -0.15384756       0.00800776
H       13.37596111      15.50472849      10.48352132      -0.00987587       0.09496637      -0.00245530
H       14.08354272      21.93421591       9.99899955      -0.02918165       0.07803291      -0.00040750
H       11.69168341      21.01850529      10.41789173      -0.04283306       0.02361770       0.00426930
H        9.99840294      16.34726036      10.95193746      -0.00401709       0.00576392       0.00058486
H       11.14308144      15.00119389      10.85550430       0.01831443       0.04137175      -0.00440672
C       12.75142732      12.91493669      10.72827509       0.01150521      -0.05878946       0.00178313
C       14.40058962      11.13717567      10.57372510       0.00119179      -0.06892373       0.00366663
C       15.40022794      12.03933761      10.36721577       0.01299573      -0.06785065       0.00155867
C       15.03141848      13.43028270      10.34596347       0.00918252      -0.07265421       0.00319032
C       14.29005172      17.39319580      10.23388488       0.00842637       0.06966055      -0.00450963
C       11.88144148      16.96653056      10.62711718      -0.02635089       0.06177912       0.00067073
C       12.56541358      19.07977847      10.39869649      -0.00108433       0.05840650      -0.00327055
C       13.91561156      18.75826226      10.21131057      -0.00247307       0.06478130      -0.00301882
C       13.83116389      20.88242477      10.09937925      -0.02703590       0.06476925       0.00022832
N       13.11971151      11.54773381      10.74941884       0.02495681      -0.07172963       0.00092813
N       13.74771701      13.81594388      10.52330442       0.01110632      -0.04780714       0.00226122
N       15.94757255      14.38138637      10.15005190       0.02640104      -0.09380400       0.00124371
N       13.18712666      16.54602701      10.45200270      -0.00779065       0.08117491      -0.00269990
N       11.51732817      18.25223952      10.60743520      -0.01685060       0.06264269      -0.00113105
N       14.69175865      19.89464333      10.02592606      -0.01237570       0.09153232      -0.00325978
N       12.52879843      20.45178437      10.32368233      -0.00970587       0.04852340      -0.00159344
N       10.94174731      16.01735001      10.82650344       0.00685880       0.04965443      -0.00402162
O       11.55332594      13.21625843      10.89565553      -0.00239273      -0.05258864       0.00213190
O       15.44600617      16.94330273      10.08340626      -0.01702314       0.04068295       0.00151074
29
Lattice="27.023740323803874 0.0 0.0 0.0 32.03352020938605 0.0 0.0 0.0 20.951491012854316" Properties=species:S:1:pos:R:3:forces:R:3 =T label=6 uncertainty=0.006453275788923034 iteration=67 energy=-4691.964796484501 pbc="T T T"
H       12.35174872      10.91452080      10.90437707      -0.00009617      -0.07228216       0.00447823
H       14.57081157      10.08018128      10.60746242       0.01316379      -0.06885555       0.00226743
H       16.42519584      11.74305036      10.22486234       0.02822172      -0.03450618      -0.00300910
H       16.90301223      14.13161151      10.01631740       0.04008254      -0.07924289      -0.00299219
H       15.69955091      15.46584256      10.12725184       0.04008240      -0.21879670       0.00519466
H       13.37820249      15.47923001      10.48415586      -0.04363180       0.15208591      -0.00226693
H       14.09190929      21.91287200       9.99907936      -0.02325970       0.07019347      -0.00026078
H       11.70307409      21.01177382      10.41681539      -0.03399200       0.02635641       0.00349706
H        9.99896613      16.34394469      10.95192773      -0.01994537      -0.03254816       0.00462646
H       11.13911926      14.98991080      10.85645811       0.04231703       0.02917576      -0.00927513
C       12.74802998      12.93088492      10.72777186       0.00707081      -0.05901373       0.00131020
C       14.40008026      11.15587518      10.57277808       0.00214591      -0.06490796       0.00365076
C       15.39646473      12.05786377      10.36682452       0.01922266      -0.06872452       0.00067151
C       15.02846018      13.44996040      10.34512325      -0.00846143      -0.08687942       0.00581694
C       14.28735318      17.37414421      10.23510488       0.01188731       0.08012874      -0.00693471
C       11.88794886      16.94997731      10.62696304      -0.03296792       0.07106521       0.00016893
C       12.56552313      19.06398288      10.39958678      -0.00988924       0.05880910      -0.00236668
C       13.91600679      18.74071974      10.21212251      -0.01378851       0.07634808      -0.00289992
C       13.83847333      20.86484711      10.09932722      -0.03224702       0.06873812       0.00092072
N       13.11289909      11.56715316      10.74916543       0.01405095      -0.07524185       0.00236439
N       13.74432012      13.82910095      10.52266632       0.00546142      -0.05734223       0.00224346
N       15.94034362      14.40631329      10.14967630       0.02790821      -0.10809045       0.00048424
N       13.18864081      16.52410677      10.45274463      -0.02258163       0.10236673      -0.00302860
N       11.52146501      18.23553684      10.60776370      -0.04068863       0.06769297       0.00171840
N       14.69508907      19.86972251      10.02678904      -0.01241363       0.07185527      -0.00264143
N       12.53144823      20.43869678      10.32412089      -0.01959619       0.05793752      -0.00039382
N       10.93989911      16.00361741      10.82753340      -0.00454516       0.03123938      -0.00235287
O       11.55380898      13.23025345      10.89502276       0.01601639      -0.04915920      -0.00233707
O       15.44983380      16.93174525      10.08305330      -0.02800997       0.05630120       0.00079348
29
Lattice="27.023740323803874 0.0 0.0 0.0 32.03352020938605 0.0 0.0 0.0 20.951491012854316" Properties=species:S:1:pos:R:3:forces:R:3 =T label=7 uncertainty=0.006618235498924854 iteration=67 energy=-4691.914506239352 pbc="T T T"
H       12.35158988      10.93128129      10.90335979       0.00542461      -0.05207579       0.00202665
H       14.56775009      10.09608678      10.60697563       0.00777012      -0.05747366       0.00270673
H       16.41876378      11.75163954      10.22552996       0.02343609      -0.03999824      -0.00134084
H       16.89390606      14.14853564      10.01704113       0.04168362      -0.05058966      -0.00414171
H       15.69074339      15.51514953      10.12600173       0.07766044      -0.29631052       0.00404243
H       13.38777978      15.44492249      10.48466786      -0.07122738       0.27249517      -0.00497798
H       14.09758164      21.89671912       9.99910803      -0.01386981       0.04506068      -0.00009647
H       11.71072317      21.00558472      10.41606324      -0.01979470       0.02906411       0.00151902
H       10.00311244      16.35001295      10.95099934      -0.02390692      -0.05109553       0.00651123
H       11.13033051      14.98314880      10.85839651       0.04537162       0.00528092      -0.00852174
C       12.74634325      12.94449038      10.72744261       0.01236258      -0.04286745      -0.00024548
C       14.39949896      11.17080042      10.57196395       0.00970343      -0.04928204       0.00160915
C       15.39198326      12.07365667      10.36668463       0.01715289      -0.05674505       0.00057613
C       15.03018281      13.46976371      10.34380606      -0.01587454      -0.08344999       0.00691072
C       14.28433503      17.35582312      10.23669753       0.02760851       0.08333535      -0.00938214
C       11.89503555      16.93394371      10.62695440      -0.03555594       0.06590814       0.00125694
C       12.56760580      19.05059274      10.40014257      -0.02633387       0.04472433       0.00119747
C       13.91896191      18.72332170      10.21278752      -0.01428434       0.06635955      -0.00214609
C       13.84585012      20.84914650      10.09912021      -0.02956855       0.05656560       0.00129979
N       13.10961440      11.58446412      10.74862150       0.00356326      -0.05989065       0.00276254
N       13.74300410      13.84236297      10.52211623       0.01221380      -0.05485473       0.00103694
N       15.93414420      14.43057626      10.14952612       0.03518249      -0.10620237      -0.00026715
N       13.19334228      16.50094461      10.45345723      -0.03256653       0.13516859      -0.00319121
N       11.53040622      18.22030003      10.60740084      -0.04980453       0.05310457       0.00426282
N       14.69789700      19.85313811      10.02739052      -0.01301592       0.04660876      -0.00094742
N       12.53590164      20.42552724      10.32422117      -0.02366914       0.04756189       0.00096836
N       10.94089118      15.99621163      10.82806132      -0.00969615       0.00288813       0.00083256
O       11.55016777      13.24155739      10.89549909       0.03169197      -0.03433341      -0.00490324
O       15.45570104      16.91863642      10.08291740      -0.02011942       0.04688329       0.00029148
29
Lattice="27.023740323803874 0.0 0.0 0.0 32.03352020938605 0.0 0.0 0.0 20.951491012854316" Properties=species:S:1:pos:R:3:forces:R:3 =T label=8 uncertainty=0.006520843815507506 iteration=67 energy=-4691.849550368156 pbc="T T T"
H       12.35041442      10.94142177      10.90297788       0.02347951      -0.04748074      -0.00104338
H       14.56620434      10.10718994      10.60647618       0.01659639      -0.03799185      -0.00004010
H       16.41432445      11.75964669      10.22577249       0.00573294      -0.02728490       0.00081265
H       16.88599414      14.15763725      10.01785067       0.01951159       0.04535037      -0.00570885
H       15.67611514      15.57154487      10.12518865       0.11112679      -0.46516091       0.00856954
H       13.40119172      15.39307103      10.48561985      -0.11324461       0.55436976      -0.01478636
H       14.10046742      21.88798625       9.99910572      -0.00788621       0.01316415       0.00073413
H       11.71446907      20.99992563      10.41579465      -0.01253325       0.01594936       0.00115852
H       10.00747617      16.35908646      10.94982164      -0.00445653      -0.03246981       0.00248151
H       11.12209958      14.98203424      10.85994097       0.00875413      -0.02348294      -0.00048518
C       12.74396894      12.95278301      10.72747135       0.02486340      -0.04703484      -0.00119582
C       14.39760922      11.18033685      10.57166030       0.01773223      -0.03781033      -0.00043243
C       15.38865312      12.08458816      10.36658105       0.01269968      -0.03796886       0.00040655
C       15.03313533      13.48571169      10.34248843      -0.03599691      -0.06589471       0.00907628
C       14.27889894      17.33990520      10.23849735       0.06994507       0.07606728      -0.01537710
C       11.90162199      16.92141725      10.62673165      -0.05020355       0.03006940       0.00573022
C       12.57254127      19.04203921      10.39992571      -0.03460096       0.01741885       0.00425734
C       13.92160341      18.71061259      10.21320171      -0.01407687       0.03881773      -0.00032950
C       13.85153600      20.83828637      10.09887205      -0.01429037       0.03071698       0.00044993
N       13.10887584      11.59603276      10.74809042       0.00696619      -0.05309658       0.00182425
N       13.74067236      13.85294355      10.52189510       0.01361616      -0.05623081       0.00121988
N       15.92754552      14.45068657      10.14955353       0.01769059      -0.08346708       0.00149575
N       13.19935843      16.47524008      10.45407617      -0.04041230       0.15689819      -0.00333263
N       11.53973705      18.21023599      10.60660618      -0.02788748       0.00748676       0.00383735
N       14.70037283      19.84406746      10.02757554      -0.01643965       0.03068989       0.00066200
N       12.54042516      20.41642048      10.32404305      -0.02102532       0.00874631       0.00282863