29
Lattice="27.023740323803874 0.0 0.0 0.0 32.03352020938605 0.0 0.0 0.0 20.951491012854316" Properties=species:S:1:pos:R:3:forces:R:3:charge:R:1 =T label=0 uncertainty=0.0 iteration=84 energy=-4692.799036498 stress="0.0 0.0 0.0 0.0 0.0 0.0 0.0 0.0 0.0" pbc="T T T"
H       12.37438688      10.88905842      10.90307212       0.00362000      -0.00134000      -0.00096000       0.49000000
H       14.56230997       9.98218947      10.60514191       0.00255000      -0.00031000       0.00086000       0.33000000
H       16.46637569      11.58165516      10.22219056      -0.00219000       0.00488000       0.00149000       0.30000000
H       17.03360400      13.98557866      10.01137666       0.00234000      -0.00223000      -0.00006000       0.46000000
H       15.82950720      15.29075240      10.13155441       0.00159000      -0.00001000      -0.00026000       0.44000000
H       13.39066869      15.61851938      10.48904970       0.00028000      -0.00016000       0.00018000       0.42000000
H       14.02591575      22.05177921       9.99811437       0.00019000       0.00778000      -0.00097000       0.32000000
H       11.65836586      21.10435582      10.41356148      -0.00001000      -0.00099000       0.00074000       0.47000000
H        9.98967692      16.40205929      10.95452898      -0.00046000      -0.00568000       0.00119000       0.47000000
H       11.17399234      15.09192034      10.85614078      -0.00070000       0.00720000      -0.00017000       0.44000000
C       12.83238524      12.90457548      10.72479588       0.00099000      -0.00396000       0.00058000       0.68000000
C       14.42500235      11.06210350      10.57157763      -0.00003000       0.00200000       0.00030000      -0.10000000
C       15.44879675      11.93610607      10.36512163      -0.00231000      -0.00214000       0.00047000      -0.37000000
C       15.12275532      13.34250574      10.34454727      -0.00145000       0.00302000       0.00015000       0.36000000
C       14.30055802      17.47883403      10.23842797       0.00038000       0.00371000      -0.00118000       0.53000000
C       11.87677173      17.05900272      10.63114272      -0.00021000      -0.00417000      -0.00005000       0.52000000
C       12.55849963      19.17078050      10.39744978      -0.00201000      -0.00608000      -0.00017000       0.30000000
C       13.91914495      18.86120857      10.21096056       0.00178000       0.00248000       0.00088000       0.04000000
C       13.79824074      20.99454491      10.09750824       0.00369000       0.00040000      -0.00114000       0.03000000
N       13.15296787      11.52229705      10.74849202       0.00003000      -0.00056000      -0.00143000      -0.59000000
N       13.85858475      13.77755298      10.52014172      -0.00428000       0.00108000      -0.00109000      -0.51000000
N       16.07328836      14.27077309      10.14842036      -0.00053000       0.00101000      -0.00033000      -0.80000000
N       13.18064018      16.64035664      10.45950810      -0.00186000       0.00422000       0.00110000      -0.56000000
N       11.51127564      18.34204130      10.60692279      -0.00436000      -0.00090000       0.00142000      -0.52000000
N       14.67232362      20.01422309      10.02600080       0.00495000       0.00090000      -0.00034000      -0.45000000
N       12.49985811      20.54646003      10.32112350       0.00208000      -0.00567000       0.00113000      -0.59000000
N       10.94442566      16.09444139      10.83298938       0.00449000      -0.00130000      -0.00098000      -0.86000000
O       11.64869136      13.23823663      10.88985173      -0.00880000      -0.00392000      -0.00083000      -0.63000000
O       15.43252846      16.97488269      10.09786441       0.00022000       0.00075000      -0.00049000      -0.62000000
29
Lattice="27.023740323803874 0.0 0.0 0.0 32.03352020938605 0.0 0.0 0.0 20.951491012854316" Properties=species:S:1:pos:R:3:forces:R:3 =T label=1 uncertainty=0.016349605877473642 iteration=84 energy=-4692.809669910502 pbc="T T T"
H       12.36575014      10.91248560      10.90308084      -0.00882556       0.02402947       0.00000938
H       14.56214363      10.00672128      10.60406743      -0.00039820       0.02495254      -0.00103251
H       16.46758729      11.61714268      10.22047132       0.00106260       0.03589534      -0.00170649
H       17.03172287      13.98339071      10.01194122      -0.00192413      -0.00278199       0.00057516
H       15.82977001      15.30593901      10.13043131       0.00080735       0.01507714      -0.00124410
H       13.38810256      15.60141562      10.49040513      -0.00291842      -0.01720861       0.00138343
H       14.02688459      22.04074022       9.99855034       0.00097049      -0.01130142       0.00045996
H       11.66677645      21.07737339      10.41407103       0.00847607      -0.02724299       0.00053169
H        9.98355142      16.38411472      10.95696374      -0.00639820      -0.01879372       0.00251976
H       11.18008439      15.08337221      10.85580946       0.00647237      -0.00881813      -0.00040718
C       12.82560624      12.92526904      10.72438740      -0.00678824       0.02114353      -0.00045914
C       14.42427605      11.08650225      10.57049438      -0.00083342       0.02474494      -0.00107408
C       15.44729111      11.95842505      10.36434497      -0.00158858       0.02266940      -0.00078081
C       15.11631714      13.36394867      10.34445689      -0.00654698       0.02164302      -0.00010384
C       14.29940717      17.45697218      10.23966442      -0.00136753      -0.02221499       0.00125548
C       11.87542981      17.04860723      10.63217255      -0.00159965      -0.01054868       0.00105824
C       12.56513204      19.15496526      10.39757801       0.00652264      -0.01611268       0.00015516
C       13.92815777      18.84294667      10.21089286       0.00898328      -0.01858658      -0.00006288
C       13.80947800      20.97916741      10.09676939       0.01130793      -0.01567676      -0.00073174
N       13.14902648      11.54525744      10.74787378      -0.00411819       0.02337386      -0.00061251
N       13.85320964      13.79850231      10.51955417      -0.00538049       0.02134971      -0.00063900
N       16.07291508      14.28477352      10.14791268      -0.00023596       0.01391909      -0.00055378
N       13.17499418      16.62492366      10.46154351      -0.00600034      -0.01555459       0.00207055
N       11.51702394      18.33128887      10.60694872       0.00557577      -0.01086395       0.00005039
N       14.68141618      19.99443241      10.02587892       0.00907348      -0.02017293      -0.00011112
N       12.50834397      20.53318466      10.32088116       0.00842693      -0.01343778      -0.00021805
N       10.94382987      16.07930055      10.83415209      -0.00062310      -0.01550653       0.00116241
O       11.64838348      13.26032138      10.88790425      -0.00022951       0.02265067      -0.00203784
O       15.42997573      16.95513771      10.09846558      -0.00284571      -0.02020775       0.00061860
29
Lattice="27.023740323803874 0.0 0.0 0.0 32.03352020938605 0.0 0.0 0.0 20.951491012854316" Properties=species:S:1:pos:R:3:forces:R:3 =T label=2 uncertainty=0.017284660346964572 iteration=84 energy=-4692.812318213383 pbc="T T T"
H       12.36494479      10.91922350      10.90277728      -0.00035493       0.00122726      -0.00005530
H       14.56739701      10.02029943      10.60260884      -0.00217273      -0.00348957      -0.00000399
H       16.46600825      11.63875342      10.21972156       0.00291757      -0.00754379      -0.00024357
H       17.02184611      14.01204245      10.01194039       0.00788579      -0.01306387       0.00011284
H       15.80704893      15.34205741      10.13164561       0.01189145      -0.01142304      -0.00018326
H       13.39602163      15.57062584      10.49057388      -0.00065679       0.00976477       0.00055383
H       14.03134033      22.02849588       9.99851703      -0.00291223       0.00756782      -0.00012612
H       11.67572612      21.06227418      10.41363831      -0.00266618       0.00360073      -0.00005648
H        9.98555054      16.39263058      10.95623556      -0.00064290      -0.00078757       0.00048378
H       11.16876524      15.07512318      10.85807139       0.00569566       0.00600478      -0.00055458
C       12.81488037      12.93224366      10.72547025       0.00580145       0.00005703      -0.00044499
C       14.42308900      11.10364840      10.56974869       0.00160012      -0.00373101      -0.00019026
C       15.44444060      11.97588295      10.36383930       0.00327770      -0.00650860      -0.00009109
C       15.10773009      13.38651630      10.34442034       0.00587804      -0.00619680       0.00001214
C       14.30422683      17.43771556      10.23986772       0.00032995       0.00610857       0.00035909
C       11.88252603      17.03383834      10.63189841      -0.00088717       0.00661445       0.00038333
C       12.57271710      19.14328689      10.39717596      -0.00118000       0.00586550       0.00008215
C       13.93660052      18.82688078      10.21059550      -0.00066445       0.00656461       0.00017783
C       13.81685235      20.96289065      10.09662980      -0.00147743       0.00750016      -0.00018721
N       13.14948463      11.55864149      10.74695806       0.00133882      -0.00114248       0.00000719
N       13.83914100      13.80857181      10.52086704       0.00818864      -0.00178982      -0.00039320
N       16.05934644      14.31462514      10.14827553       0.00876245      -0.00938216       0.00004857
N       13.18094670      16.60157384      10.46187490      -0.00092672       0.00724959       0.00057310
N       11.52768679      18.31505230      10.60630280      -0.00115938       0.00642423       0.00011027
N       14.68880675      19.97801993      10.02575845      -0.00174166       0.00710653       0.00016371
N       12.51817425      20.51854721      10.32029943      -0.00205190       0.00688282      -0.00012310
N       10.94260050      16.07143139      10.83462692       0.00126050       0.00388798       0.00043994
O       11.63786196      13.26295422      10.88940783       0.00820172       0.00413018      -0.00111036
O       15.43638512      16.93962911      10.09788890      -0.00045893       0.00609995       0.00065689
29
Lattice="27.023740323803874 0.0 0.0 0.0 32.03352020938605 0.0 0.0 0.0 20.951491012854316" Properties=species:S:1:pos:R:3:forces:R:3 =T label=3 uncertainty=0.016081352986310995 iteration=84 energy=-4692.8072157528995 pbc="T T T"
H       12.36672511      10.91099728      10.90314273       0.00032242       0.00110911      -0.00015308
H       14.57278009      10.02607168      10.60338191      -0.00031460      -0.00124995      -0.00026397
H       16.45602765      11.65544231      10.22101554       0.00189713      -0.00247930      -0.00027640
H       16.99762572      14.04570038      10.01152975       0.00412561      -0.00516206       0.00010791
H       15.77456946      15.36585595      10.13170432       0.00451225      -0.00271142       0.00014553
H       13.39438473      15.55019045      10.48842968       0.00102441       0.00220325       0.00038257
H       14.03985288      22.00681017       9.99899730      -0.00152170       0.00411280      -0.00011580
H       11.68091170      21.05685007      10.41407622      -0.00103670       0.00095606      -0.00008122
H        9.98688193      16.39124801      10.95481055      -0.00001083       0.00123846       0.00018088
H       11.15347171      15.05721396      10.85895278       0.00237688       0.00358616      -0.00006535
C       12.79891872      12.92828107      10.72656693       0.00254942       0.00055477      -0.00010465
C       14.41771240      11.10847591      10.57085666       0.00082101      -0.00097635      -0.00018079
C       15.43377319      11.99090918      10.36443881       0.00201322      -0.00223177      -0.00014953
C       15.09033387      13.39774637      10.34440022       0.00297710      -0.00147710       0.00002139
C       14.30052717      17.42508971      10.23842007       0.00106676       0.00203237       0.00025023
C       11.88214376      17.01693475      10.63061405       0.00044886       0.00269897       0.00022131
C       12.57314020      19.12767670      10.39707512       0.00044672       0.00296682      -0.00005391
C       13.93465030      18.81094515      10.21008697       0.00085250       0.00287902       0.00004284
C       13.81847130      20.94358170      10.09739771      -0.00025570       0.00363501      -0.00015046
N       13.14430120      11.55581284      10.74740785       0.00108021       0.00034044      -0.00010121
N       13.81599283      13.80988338      10.52165698       0.00370688      -0.00017638      -0.00004605
N       16.03381932      14.33405606      10.14790300       0.00418388      -0.00234331       0.00009912
N       13.18141688      16.58669274      10.45955763       0.00071908       0.00196304       0.00036645
N       11.52649526      18.29969545      10.60621676       0.00095839       0.00275272      -0.00008210
N       14.69142132      19.96023780      10.02520964      -0.00001943       0.00336426       0.00004322
N       12.52070030      20.50061852      10.32105429      -0.00004000       0.00298380      -0.00018629
N       10.93857820      16.06117663      10.83273425       0.00085451       0.00232159       0.00032138
O       11.61278374      13.24608969      10.89277896       0.00357902       0.00218996      -0.00033595
O       15.43477811      16.92508844      10.09574462       0.00048152       0.00169471       0.00044973
29
Lattice="27.023740323803874 0.0 0.0 0.0 32.03352020938605 0.0 0.0 0.0 20.951491012854316" Properties=species:S:1:pos:R:3:forces:R:3 =T label=4 uncertainty=0.017748131270960543 iteration=84 energy=-4692.808795909044 pbc="T T T"
H       12.36387755      10.90650697      10.90412981      -0.00112334       0.00148443       0.00012573
H       14.57303651      10.03528452      10.60540114      -0.00104087       0.00190787       0.00027894
H       16.44271928      11.67054653      10.22301841      -0.00127545       0.00091715       0.00019440
H       16.97160278      14.07607754      10.01076781      -0.00165824       0.00143802      -0.00009588
H       15.74928911      15.38111922      10.13017195      -0.00020304       0.00118782      -0.00038958
H       13.38621860      15.53748919      10.48602942      -0.00114298      -0.00132674      -0.00007272
H       14.04947426      21.97937373       9.99987608       0.00067633      -0.00289488       0.00013968
H       11.68776927      21.05126451      10.41460088       0.00097512      -0.00066503       0.00000260
H        9.98620282      16.37996842      10.95390759      -0.00044646      -0.00213087       0.00006329
H       11.13962972      15.03256889      10.85907524      -0.00051131      -0.00279036      -0.00007040
C       12.78326526      12.92646605      10.72691456      -0.00068223       0.00123803      -0.00017059
C       14.41212552      11.11569686      10.57206029      -0.00068849       0.00177357       0.00007731
C       15.42037665      12.00560428      10.36545006      -0.00102852       0.00150697       0.00005502
C       15.07155137      13.40710651      10.34414037      -0.00124511       0.00123486      -0.00007803
C       14.29255364      17.41150207      10.23688728      -0.00100501      -0.00176646      -0.00002782
C       11.87794864      16.99962111      10.62930483      -0.00073461      -0.00167409      -0.00001635
C       12.56929496      19.10775786      10.39757348      -0.00057541      -0.00212325       0.00010931
C       13.92829571      18.79158572      10.20990192      -0.00083981      -0.00215982       0.00006357
C       13.81969326      20.91908060      10.09849226       0.00016917      -0.00288692       0.00013287
N       13.13694285      11.55514527      10.74805927      -0.00061116       0.00146329      -0.00000600
N       13.79306767      13.81207036      10.52165999      -0.00128298       0.00097186      -0.00011985
N       16.00830472      14.34744771      10.14703480      -0.00105924       0.00118932      -0.00020546
N       13.17484720      16.57470241      10.45736291      -0.00121064      -0.00155895      -0.00001377
N       11.51868421      18.28152824      10.60697557      -0.00109749      -0.00204834       0.00016897
N       14.69069872      19.93765670      10.02504625      -0.00029395      -0.00264696       0.00006414
N       12.52002091      20.48116592      10.32241875      -0.00010809      -0.00206094       0.00014857
N       10.93295025      16.04506987      10.83066270      -0.00054823      -0.00198637      -0.00008714
O       11.59095549      13.23468004      10.89436919      -0.00077890       0.00131524      -0.00025608
O       15.43029129      16.91312915      10.09296707      -0.00072292      -0.00114202      -0.00016652
29
Lattice="27.023740323803874 0.0 0.0 0.0 32.03352020938605 0.0 0.0 0.0 20.951491012854316" Properties=species:S:1:pos:R:3:forces:R:3 =T label=5 uncertainty=0.021826277314286307 iteration=84 energy=-4692.802798277319 pbc="T T T"
H       12.34955411      10.91957738      10.90594064       0.01048007      -0.00169417      -0.00177575
H       14.56315033      10.05648276      10.60800178       0.00076320      -0.02143880      -0.00126661
H       16.43246304      11.68337859      10.22436822       0.00895490      -0.03087784      -0.00033994
H       16.95408402      14.09338026      10.00979499       0.02851716      -0.03190779       0.00017532
H       15.74233999      15.39567467      10.12690246       0.03152179      -0.03731145       0.00123978
H       13.37477353      15.52237974      10.48540757       0.00660091       0.02857436       0.00119695
H       14.05741797      21.94825334      10.00120243      -0.01593127       0.03594774      -0.00031438
H       11.69871498      21.03929537      10.41475307      -0.01098500       0.02289679      -0.00078598
H        9.98161093      16.36009902      10.95444573       0.00120992       0.01019088       0.00076612
H       11.13272069      15.00518955      10.85858349       0.01629128       0.02250209      -0.00062304
C       12.77573078      12.93785322      10.72534452       0.01778489      -0.00400553      -0.00040373
C       14.40478149      11.13460099      10.57281460       0.00720012      -0.01771052      -0.00074971
C       15.41132872      12.02009457      10.36581500       0.00967436      -0.02177458       0.00001435
C       15.05812388      13.41896852      10.34352211       0.01993093      -0.01673653       0.00024791
C       14.28228258      17.39395069      10.23663251       0.00797740       0.02272455       0.00066311
C       11.87170965      16.98125608      10.62904423      -0.00050280       0.02719787       0.00117009
C       12.56283196      19.08551911      10.39882415       0.00582612       0.02573920      -0.00126920
C       13.91976625      18.76969123      10.21057034       0.00428805       0.02712794      -0.00016476
C       13.82340041      20.88926720      10.09956545      -0.00799711       0.03102142      -0.00044567
N       13.12945351      11.56892789      10.74824108       0.01149758      -0.00672280      -0.00094061
N       13.77983286      13.82118292      10.52050923       0.02367448      -0.00800129      -0.00000563
N       15.99462611      14.36171649      10.14531602       0.03305541      -0.02740071       0.00000158
N       13.16426705      16.55722582      10.45707394       0.00108287       0.02530066       0.00187077
N       11.50871390      18.26098752      10.60850660       0.00123459       0.02230060      -0.00013601
N       14.68886980      19.90839734      10.02568082      -0.00228395       0.03732402      -0.00038695
N       12.52079278      20.45905405      10.32371031      -0.00500534       0.02509486      -0.00083488
N       10.92630238      16.02398482      10.83003122       0.00943104       0.02214775       0.00071613
O       11.58391920      13.24837993      10.89159664       0.01652829       0.00193035      -0.00009882
O       15.42554597      16.90894921      10.09053014      -0.00272655      -0.00086352       0.00420358
29
Lattice="27.023740323803874 0.0 0.0 0.0 32.03352020938605 0.0 0.0 0.0 20.951491012854316" Properties=species:S:1:pos:R:3:forces:R:3 =T label=6 uncertainty=0.02109279927845901 iteration=84 energy=-4692.773615170936 pbc="T T T"
H       12.33947431      10.92565193      10.90738554       0.00293153       0.00092809      -0.00099999
H       14.56021088      10.07575339      10.60925321      -0.01070752      -0.03844743      -0.00004411
H       16.42530024      11.70727035      10.22463621       0.01678439      -0.08715766       0.00088529
H       16.93380251      14.11298199      10.00958561       0.06871755      -0.04581828      -0.00322609
H       15.72265799      15.42269221      10.12531613       0.06878813      -0.11581483       0.00326516
H       13.36817111      15.50044281      10.48474594       0.00494607       0.08996276       0.00118337
H       14.06913072      21.91921418      10.00165392      -0.04419451       0.06456562       0.00198835
H       11.70758936      21.02101872      10.41537708      -0.01191709       0.04682889      -0.00268766
H        9.97919485      16.34753068      10.95435467      -0.00027199       0.01456564       0.00193558
H       11.12289089      14.98601768      10.85863410       0.02876850       0.02786808      -0.00104376
C       12.76351769      12.94434535      10.72514060       0.04490709       0.00078286      -0.00367090
C       14.39832372      11.15080095      10.57342864       0.00986033      -0.03082883      -0.00073975
C       15.40383417      12.03750862      10.36577137       0.02302435      -0.06170581       0.00047335
C       15.04355746      13.43243394      10.34318262       0.04000897      -0.04917575       0.00103746
C       14.27475530      17.37530391      10.23636556       0.01325774       0.05549908       0.00059745
C       11.87015997      16.96027026      10.62844036      -0.00326611       0.05858269       0.00210796
C       12.55774927      19.06479897      10.39992567       0.00403354       0.04542463      -0.00127636
C       13.91552672      18.74783454      10.21084880       0.00229123       0.05967463      -0.00010606
C       13.82953507      20.86366612      10.10001822      -0.01887084       0.05528351      -0.00004230
N       13.12024260      11.57762184      10.74888248       0.02975877      -0.00715984      -0.00316060
N       13.76345296      13.82958634      10.52010574       0.05379498      -0.01932446      -0.00136822
N       15.97229082      14.38178554      10.14489637       0.07616120      -0.06493758      -0.00139061
N       13.16129839      16.53709000      10.45601397      -0.01066486       0.06154835       0.00468358
N       11.50610340      18.24324487      10.60888604      -0.01329368       0.04572844       0.00186768
N       14.69018138      19.87821613      10.02609318      -0.00775361       0.07367643      -0.00053870
N       12.52456505      20.43858744      10.32444304      -0.01366765       0.04386672      -0.00074930
N       10.91892480      16.00554064      10.82959904       0.01684463       0.03497005       0.00211440
O       11.57300616      13.25235271      10.89078963       0.04660884       0.02270398      -0.00558738
O       15.42573753      16.90812056      10.08761100      -0.00814165       0.00745699       0.00757921
29
Lattice="27.023740323803874 0.0 0.0 0.0 32.03352020938605 0.0 0.0 0.0 20.951491012854316" Properties=species:S:1:pos:R:3:forces:R:3 =T label=7 uncertainty=0.019287858144841567 iteration=84 energy=-4692.733747578954 pbc="T T T"
H       12.33813687      10.92602772      10.90774444      -0.01541227       0.01165314       0.00137307
H       14.56362081      10.08951899      10.60929594      -0.01406949      -0.01628912       0.00120353
H       16.41948380      11.73746471      10.22432421       0.01592465      -0.06655367       0.00029166
H       16.91027291      14.12854258      10.01067170       0.07424381      -0.03997999      -0.00651122
H       15.69915640      15.46271798      10.12414711       0.06686526      -0.18053344       0.00450325
H       13.36636277      15.46925872      10.48436334      -0.01851083       0.16523655      -0.00202532
H       14.08429549      21.89657624      10.00100781      -0.04367166       0.03475216       0.00428804
H       11.71189080      21.00457803      10.41629942      -0.00039032       0.01876259      -0.00175048
H        9.97917771      16.34201868      10.95372958      -0.00662327      -0.02038750       0.00382069
H       11.11313035      14.97605123      10.85896807       0.03112576      -0.00120624      -0.00259841
C       12.74814501      12.94461625      10.72634010       0.03772404       0.01490209      -0.00539375
C       14.39473901      11.16189842      10.57369232       0.00002160      -0.01498729       0.00057542
C       15.39591198      12.05900331      10.36559201       0.02551715      -0.05299462      -0.00053857
C       15.02985396      13.44953374      10.34280091       0.02529780      -0.05711459       0.00227127
C       14.27000560      17.35590224      10.23619492       0.01180364       0.05483086      -0.00135190
C       11.87114071      16.93985796      10.62774604      -0.01710801       0.04561879       0.00332451
C       12.55628691      19.04883027      10.40039150      -0.00826545       0.02444975       0.00107485
C       13.91470657      18.72697681      10.21089881       0.00176487       0.04944313      -0.00097759
C       13.83610066      20.84419232      10.10004848      -0.01770416       0.03212135       0.00109154
N       13.10987146      11.58065410      10.74996428       0.02205928       0.00913680      -0.00296000
N       13.74510046      13.83665286      10.52051984       0.05133956      -0.00785939      -0.00382275
N       15.94622145      14.40427815      10.14533945       0.06611741      -0.07798509      -0.00140207
N       13.16477257      16.51566143      10.45444130      -0.02804555       0.08732238       0.00365351
N       11.51056380      18.22728281      10.60826955      -0.03136121       0.04134765       0.00400102
N       14.69287898      19.85240288      10.02629345      -0.00827068       0.04532741       0.00012164
N       12.52935324      20.42311882      10.32471126      -0.01099669       0.02122933       0.00033337
N       10.91303265      15.99318525      10.82890186       0.00461342       0.00732686       0.00373927
O       11.55711720      13.24531342      10.89259172       0.04950296       0.04100482      -0.01063795
O       15.42836445      16.90533597      10.08502664      -0.01564600       0.00700394       0.00617042
29
Lattice="27.023740323803874 0.0 0.0 0.0 32.03352020938605 0.0 0.0 0.0 20.951491012854316" Properties=species:S:1:pos:R:3:forces:R:3 =T label=8 uncertainty=0.015260097042395067 iteration=84 energy=-4692.677926079678 pbc="T T T"
H       12.34266613      10.92334433      10.90730539      -0.01630134      -0.00843850       0.00279921
H       14.56764031      10.09508969      10.60894844      -0.00159047      -0.01004527       0.00074281
H       16.41449271      11.75817564      10.22423027       0.01471574      -0.02909634      -0.00087245
H       16.88731374      14.14086710      10.01268420       0.06515326      -0.01232184      -0.00842155
H       15.67840983      15.51992685      10.12270039       0.11916371      -0.40554164       0.00594469
H       13.37232592      15.41680394      10.48504606      -0.08661120       0.44771527      -0.01095674
H       14.09779723      21.88543320       9.99970857      -0.02550519       0.00131164       0.00397893
H       11.71223340      20.99852285      10.41682479       0.00372365      -0.01018322       0.00021262
H        9.98122964      16.34811268      10.95256200      -0.00952744      -0.05429155       0.00508716
H       11.10352319      14.97617986      10.85977211       0.03190746      -0.03562739      -0.00301046
C       12.73656907      12.94066539      10.72794451       0.03079867       0.00088660      -0.00508370
C       14.39453164      11.16707651      10.57351837       0.00624830      -0.01110231      -0.00010744
C       15.38801487      12.07583014      10.36573358       0.02593093      -0.03893379      -0.00146931
C       15.02230318      13.46765861      10.34203692      -0.01519608      -0.06691181       0.00749464
C       14.26611952      17.33836156      10.23668807       0.04527406       0.07489547      -0.00998856
C       11.87647344      16.92533471      10.62674376      -0.04913208       0.03197700       0.00720465
C       12.55888309      19.04089844      10.40007618      -0.02474569       0.00858888       0.00382739
C       13.91421528      18.71118987      10.21122280       0.00703306       0.04748594      -0.00321761
C       13.84168184      20.83376483      10.09972424      -0.02361798       0.00663453       0.00345272
N       13.10283731      11.57852136      10.75088069       0.01395963      -0.00139131      -0.00147616
N       13.72941761      13.83960868      10.52164911       0.03987874      -0.01134180      -0.00416794
N       15.92585491      14.42896640      10.14574197       0.04301766      -0.10509146       0.00103859
N       13.17345928      16.48792032      10.45336480      -0.04641607       0.17333455      -0.00105042
N       11.52042207      18.21409173      10.60703354      -0.04362417       0.02618542       0.00586164
N       14.69551316      19.83786729      10.02627472      -0.01782615       0.01782787       0.00212351
N       12.53288046      20.41616241      10.32461210      -0.01182332      -0.00153215       0.00203714