15
Lattice="24.897750096431743 0.0 0.0 0.0 21.74912624515586 0.0 0.0 0.0 25.455929653561725" Properties=species:S:1:pos:R:3:forces:R:3:charge:R:1 =T label=0 uncertainty=0.0 iteration=117 energy=-2317.091183171 stress="0.0 0.0 0.0 0.0 0.0 0.0 0.0 0.0 0.0" pbc="T T T"
H       11.39955937      10.82960768      10.26439087      -0.00559000      -0.00032000      -0.00257000       0.51000000
H       14.89774305      10.80659710      12.28961372       0.00883000       0.00022000      -0.00071000       0.52000000
H       10.11774850      10.85916474      12.24262207       0.00121000      -0.00052000       0.00117000       0.33000000
H       11.34127374      10.00000901      15.45592407      -0.00615000       0.00422000      -0.00332000       0.31000000
H       11.35920012      11.74911724      15.43830857      -0.00605000      -0.00554000      -0.00289000       0.31000000
H       10.00000704      10.88106611      14.70436321       0.00599000      -0.00075000      -0.00504000       0.27000000
C       11.19405334      10.84772470      12.34037284      -0.00141000       0.00009000       0.00808000      -0.11000000
C       11.80748411      10.85090007      13.54110359       0.00020000       0.00071000       0.00206000      -0.08000000
C       13.27498240      10.83460998      13.56673771       0.00215000      -0.00075000       0.00480000       0.62000000
C       13.27326445      10.81547075      11.05632484      -0.00381000       0.00099000       0.00055000       0.80000000
C       11.07892614      10.87134425      14.85429863       0.00082000       0.00006000      -0.00083000      -0.82000000
N       11.88690793      10.83012966      11.14445327      -0.00274000       0.00054000      -0.00069000      -0.67000000
N       13.88801480      10.81740642      12.29829419      -0.00024000       0.00056000       0.00129000      -0.70000000
O       13.95889869      10.83524070      14.57491980       0.00544000      -0.00171000      -0.00398000      -0.63000000
O       13.87337492      10.80242127      10.00000558       0.00136000       0.00218000       0.00208000      -0.66000000
15
Lattice="24.897750096431743 0.0 0.0 0.0 21.74912624515586 0.0 0.0 0.0 25.455929653561725" Properties=species:S:1:pos:R:3:forces:R:3 =T label=1 uncertainty=0.020181369386674135 iteration=117 energy=-2317.09577295348 pbc="T T T"
H       11.43526282      10.83421910      10.25594608      -0.00999092      -0.00093867      -0.00208988
H       14.88843511      10.79558194      12.32770059       0.00058394       0.00253001      -0.01512382
H       10.11125117      10.86592070      12.20971025      -0.00011680      -0.00182125       0.00379969
H       11.34053459      10.00142328      15.45756075       0.00859163      -0.00016138      -0.00301418
H       11.36050492      11.74977902      15.44129344       0.00784246      -0.00004560      -0.00327570
H        9.97408817      10.88358571      14.73710738       0.00810222      -0.00059124      -0.00203962
C       11.18098098      10.85104206      12.32133969       0.00015208      -0.00089135      -0.00188883
C       11.78611036      10.85116475      13.55726507       0.00505202       0.00007491      -0.00496690
C       13.25362870      10.82963709      13.60562603       0.00483325       0.00108860      -0.01194591
C       13.28713820      10.81377358      11.09394320      -0.00514804       0.00104376      -0.01181391
C       11.05648009      10.87062151      14.86231549       0.00902546      -0.00025581      -0.00290480
N       11.90610053      10.83251448      11.15813356      -0.00516347      -0.00035370      -0.00532592
N       13.88465389      10.81118034      12.34311996      -0.00027909       0.00183544      -0.01429475
O       13.91118806      10.82607444      14.62535911       0.00983047       0.00170685      -0.01562577
O       13.91783847      10.80119700      10.05868036      -0.01193758       0.00167206      -0.01530481
15
Lattice="24.897750096431743 0.0 0.0 0.0 21.74912624515586 0.0 0.0 0.0 25.455929653561725" Properties=species:S:1:pos:R:3:forces:R:3 =T label=2 uncertainty=0.015265457644309205 iteration=117 energy=-2317.0910927970554 pbc="T T T"
H       11.46652628      10.83800732      10.27132765      -0.00363411      -0.00029844       0.00697930
H       14.88890044      10.78621790      12.39122224       0.00387850       0.00024899      -0.00126505
H       10.11558688      10.87286677      12.20631664       0.00380429       0.00010730       0.01247693
H       11.30068500      10.00213031      15.47096285      -0.01566702      -0.00087931       0.00501046
H       11.32286668      11.75037851      15.45485011      -0.01565283       0.00096499       0.00458275
H        9.94776289      10.88552683      14.73414514      -0.00079653      -0.00023381      -0.01348476
C       11.18719355      10.85418181      12.34219004       0.00494051      -0.00005711       0.00867994
C       11.77059004      10.85103721      13.57127097       0.00557058      -0.00004008       0.00472327
C       13.23916271      10.82525956      13.64192850       0.00608571       0.00023395       0.00165846
C       13.30497218      10.80987682      11.13211998       0.00059485      -0.00076158       0.00032617
C       11.02585141      10.87160373      14.87400635      -0.00411057       0.00027699      -0.00018597
N       11.92213001      10.83404362      11.17393868      -0.00063012      -0.00007509       0.00430726
N       13.88579210      10.80483384      12.39045933       0.00347077       0.00026121      -0.00029129
O       13.88839960      10.81999419      14.67296997       0.01019868       0.00073177      -0.00120604
O       13.95208304      10.79442957      10.10207869      -0.00391190      -0.00182580      -0.00330824
15
Lattice="24.897750096431743 0.0 0.0 0.0 21.74912624515586 0.0 0.0 0.0 25.455929653561725" Properties=species:S:1:pos:R:3:forces:R:3 =T label=3 uncertainty=0.014237311749697234 iteration=117 energy=-2317.0922567613393 pbc="T T T"
H       11.46205997      10.83704698      10.30446414       0.00560500       0.00087327       0.00653309
H       14.90402244      10.78643366      12.41156208       0.00024645      -0.00190516       0.03030047
H       10.13208841      10.87437717      12.25270491       0.00180166       0.00167586       0.00156255
H       11.23131270       9.99892706      15.49225174      -0.00980756       0.00066250       0.00249171
H       11.25466768      11.75308127      15.47482318      -0.00891398       0.00041188       0.00303073
H        9.93561587      10.88504612      14.67753189      -0.00598842       0.00034177      -0.00452471
C       11.20778896      10.85449978      12.38298058       0.00151125       0.00076579       0.00505338
C       11.78696330      10.85063666      13.59447097      -0.00275875       0.00008181       0.00391920
C       13.25667276      10.82583417      13.65688498      -0.00416394      -0.00094333       0.00754496
C       13.31261583      10.80581019      11.14380357       0.00478095      -0.00117083       0.00757662
C       11.00286753      10.87344853      14.87807378      -0.00582801      -0.00067741       0.00287396
N       11.92327465      10.83331612      11.19527748       0.00393114       0.00020629       0.00460824
N       13.89813920      10.80436448      12.40273230       0.00016392      -0.00148492       0.01094157
O       13.92067609      10.82262400      14.67842503      -0.00386798      -0.00126559       0.00746181
O       13.94586241      10.78488034      10.10096162       0.00387540      -0.00201676       0.00671717
15
Lattice="24.897750096431743 0.0 0.0 0.0 21.74912624515586 0.0 0.0 0.0 25.455929653561725" Properties=species:S:1:pos:R:3:forces:R:3 =T label=4 uncertainty=0.01749467990602578 iteration=117 energy=-2317.0904508906838 pbc="T T T"
H       11.49027245      10.84212555      10.29980412       0.01783073      -0.00089183       0.00191921
H       14.89168415      10.77731087      12.50990273       0.02843951      -0.00146152      -0.19757067
H       10.12503210      10.88053148      12.21578305       0.00984380       0.00008945       0.00473700
H       11.25238270      10.00436921      15.48440246      -0.03397875       0.00211496       0.01259202
H       11.27842894      11.75348605      15.47051125      -0.03267617      -0.00219840       0.01250029
H        9.92079265      10.88723254      14.71221548      -0.02197860       0.00019024      -0.00423397
C       11.19502348      10.85757737      12.36759843       0.00525129      -0.00009709       0.01491911
C       11.76003250      10.85139547      13.59053683       0.00407196       0.00017253       0.01459501
C       13.22384869      10.82087516      13.67605670       0.02091043      -0.00013611       0.03740347
C       13.32541204      10.80496175      11.16614141      -0.00975355      -0.00117466       0.02897770
C       10.99830141      10.86820134      14.88679013      -0.02014994       0.00088550       0.00928665
N       11.93963940      10.83510337      11.19403797       0.00397156      -0.00025822       0.00435427
N       13.88778021      10.79828960      12.43748360       0.00483455       0.00035497       0.01682228
O       13.87492755      10.81406045      14.70603132      -0.02512646       0.00203082       0.06062624
O       13.97007649      10.78543510      10.13258682       0.03390034      -0.00296876       0.05538514
15
Lattice="24.897750096431743 0.0 0.0 0.0 21.74912624515586 0.0 0.0 0.0 25.455929653561725" Properties=species:S:1:pos:R:3:forces:R:3 =T label=5 uncertainty=0.01685802959337762 iteration=117 energy=-2316.994004010165 pbc="T T T"
H       11.47868297      10.84271724      10.29879190       0.08013086       0.00140022       0.01610163
H       14.87318261      10.77822446      12.63984628       0.18004863      -0.01538426      -0.88023865
H       10.11843817      10.88049989      12.21279437       0.02435519       0.00284641      -0.00254713
H       11.27443201      10.00309650      15.47624562      -0.03909756       0.02010513      -0.00092961
H       11.29964679      11.75482870      15.46237709      -0.02811853      -0.00032762       0.00754201
H        9.93518662      10.88707524      14.71485041      -0.05549393      -0.00005108      -0.00809164
C       11.19148429      10.85768612      12.35786236       0.00560873       0.00159178       0.02430361
C       11.75725323      10.85131832      13.58097950       0.00373442       0.00186324       0.01763670
C       13.21016410      10.82095033      13.65170747       0.03516205      -0.00204504       0.18313188
C       13.33193670      10.80562043      11.14723430      -0.06207282       0.00027503       0.11699929
C       11.01135547      10.86761739      14.88062819      -0.05129973      -0.01495360       0.00817993
N       11.93717965      10.83529261      11.19136120       0.01983853       0.00053567       0.00984520
N       13.88475329      10.79805455      12.42664511      -0.03014635       0.00233252       0.07657307
O       13.89127406      10.81270487      14.66660059      -0.22157523       0.00107712       0.33002283
O       13.94788344      10.78738144      10.09632642       0.11779082      -0.00410233       0.20611441
15
Lattice="24.897750096431743 0.0 0.0 0.0 21.74912624515586 0.0 0.0 0.0 25.455929653561725" Properties=species:S:1:pos:R:3:forces:R:3 =T label=6 uncertainty=0.017193644724504572 iteration=117 energy=-2316.7578219017387 pbc="T T T"
H       11.46681116      10.84243365      10.29646811       0.15944709       0.00685017       0.03226590
H       14.84662369      10.78063354      12.77033945       0.34531018      -0.03090874      -1.73229210
H       10.11475991      10.88001525      12.21319287       0.03401041       0.00656066      -0.03793370
H       11.28015609      10.00023189      15.47638428      -0.00735992       0.02102117      -0.01252713
H       11.30378798      11.75474782      15.46133168       0.00672292       0.00910334      -0.00448003
H        9.94341359      10.88706168      14.71589981      -0.06377390       0.00226900       0.00796482
C       11.19059510      10.85745559      12.35428308       0.01726157       0.00073807       0.04350390
C       11.75665124      10.85100298      13.57836714      -0.03286315       0.00392674       0.04319341
C       13.20493759      10.82136461      13.62467737       0.01376187      -0.00626127       0.33718844
C       13.34117151      10.80551144      11.12999622      -0.04101695       0.00760967       0.16925323
C       11.01888513      10.86981081      14.87932741      -0.08149770      -0.02110123      -0.00741963
N       11.93426229      10.83517449      11.18995601       0.05581870       0.00232778       0.03582116
N       13.88927518      10.79771490      12.41541448      -0.14342504       0.00361038       0.12696228
O       13.92400022      10.81264023      14.61786457      -0.45343035      -0.00228282       0.59558767
O       13.93051689      10.78795446      10.06592078       0.22354938       0.00400254       0.24208412
15
Lattice="24.897750096431743 0.0 0.0 0.0 21.74912624515586 0.0 0.0 0.0 25.455929653561725" Properties=species:S:1:pos:R:3:forces:R:3 =T label=7 uncertainty=0.01512832088262452 iteration=117 energy=-2316.3767969661426 pbc="T T T"
H       11.45444232      10.84183797      10.29401404       0.22183795       0.01300806       0.03583823
H       14.81987850      10.78313408      12.90488413       0.33373534      -0.04236169      -2.49580440
H       10.11206920      10.87945432      12.21613055       0.03947777       0.01249175      -0.07842461
H       11.28067641       9.99868360      15.47737115      -0.00626020       0.00069422      -0.00546134
H       11.30324543      11.75393202      15.46174098      -0.00947932       0.01564591      -0.01084892
H        9.94837261      10.88687560      14.71520469      -0.08317457       0.00848417       0.02135154
C       11.18921200      10.85740153      12.35091507       0.04309380       0.00187116       0.07765185
C       11.75916075      10.85066915      13.57501545      -0.09565185       0.00197329       0.08419139
C       13.20384769      10.82193817      13.59857853       0.02496753      -0.00976586       0.52467003
C       13.34439190      10.80485425      11.11693739       0.09154243       0.01167736       0.17275314
C       11.02516573      10.87143534      14.87984314      -0.10372075      -0.00673101       0.03388051
N       11.92995044      10.83496924      11.18721791       0.16025023       0.00227878       0.08549944
N       13.90043941      10.79744660      12.40564924      -0.14769661      -0.00440739       0.27042659
O       13.95912478      10.81289697      14.57174174      -0.70485789      -0.00437341       0.82681630
O       13.91323119      10.78761866      10.04723180       0.28694304       0.01123623       0.20514579
15
Lattice="24.897750096431743 0.0 0.0 0.0 21.74912624515586 0.0 0.0 0.0 25.455929653561725" Properties=species:S:1:pos:R:3:forces:R:3 =T label=8 uncertainty=0.012656326756674064 iteration=117 energy=-2315.883105071146 pbc="T T T"
H       11.44238551      10.84118070      10.29212061       0.21538662       0.01315251       0.05700103
H       14.80167998      10.78534611      13.04111825       0.12092220      -0.04364774      -2.91476077
H       10.10990994      10.87882784      12.22034998       0.02874394       0.01284241      -0.05746962
H       11.28096993       9.99865390      15.47773314      -0.01032735      -0.00061394      -0.01232129
H       11.30370995      11.75308668      15.46233598      -0.02873935       0.01943779      -0.02009282
H        9.95290067      10.88643085      14.71404680      -0.07380511       0.00501263      -0.00513000
C       11.18685096      10.85734026      12.34670518       0.04727371       0.00966711       0.08642665
C       11.76436252      10.85057239      13.57045410      -0.10793273      -0.00160822       0.05526566
C       13.20248033      10.82243281      13.56999403       0.03959607      -0.00314652       0.70243495
C       13.33942208      10.80421738      11.10754441       0.22023736       0.00672134       0.14797723
C       11.03079679      10.87179555      14.87801736      -0.07127856      -0.00850007       0.04447557
N       11.92124410      10.83486667      11.18260905       0.26139806      -0.00091323       0.10051088
N       13.90852747      10.79766266      12.39093993       0.08215288      -0.01175107       0.48452334
O       13.99755248      10.81304649      14.52668443      -0.89692642      -0.00083772       0.98966312
O       13.89754173      10.78702683      10.03604011       0.21001328       0.01263391       0.15989086
15
Lattice="24.897750096431743 0.0 0.0 0.0 21.74912624515586 0.0 0.0 0.0 25.455929653561725" Properties=species:S:1:pos:R:3:forces:R:3 =T label=9 uncertainty=0.010867002863470332 iteration=117 energy=-2315.39151247784 pbc="T T T"
H       11.43244450      10.84066459      10.28953331       0.14489024       0.00572965       0.06303522
H       14.79605615      10.78720823      13.17664467      -0.01136169      -0.02891399      -2.22576003
H       10.10859819      10.87832084      12.22292127       0.01640193       0.00544213      -0.01872390
H       11.28139289       9.99864308      15.47839342      -0.00440865       0.01170534      -0.00987592
H       11.30498053      11.75225074      15.46324473      -0.01467189       0.01297446      -0.01107380
H        9.95630401      10.88622700      14.71429400      -0.03631733      -0.00425924      -0.01086872
C       11.18466811      10.85694031      12.34272257       0.03235648       0.01282453       0.05860232
C       11.76937653      10.85068559      13.56793491      -0.06688365      -0.00199373       0.00612577
C       13.20064732      10.82248771      13.53736983       0.01171679       0.00675180       0.58413070
C       13.32921188      10.80397023      11.10066418       0.18017375      -0.00007195       0.10535841
C       11.03408010      10.87217799      14.87601448      -0.02556033      -0.01458782      -0.00568473
N       11.90914465      10.83492047      11.17799589       0.19754719      -0.00269184       0.04821170
N       13.90475175      10.79817057      12.36843220       0.20914175      -0.00881409       0.44432105
O       14.03923750      10.81294839      14.48071378      -0.70373634       0.00299189       0.75348313
O       13.88767833      10.78646595      10.02853224       0.09151356       0.00769201       0.11585763
15
Lattice="24.897750096431743 0.0 0.0 0.0 21.74912624515586 0.0 0.0 0.0 25.455929653561725" Properties=species:S:1:pos:R:3:forces:R:3 =T label=10 uncertainty=0.010334921965651275 iteration=117 energy=-2315.1708221844992 pbc="T T T"
H       11.42381053      10.84036544      10.28578843       0.00176586      -0.00150683       0.00027961
H       14.79672669      10.78886946      13.31101176      -0.00052416       0.00252163       0.00154101
H       10.10765848      10.87802927      12.22388255       0.00098061      -0.00163793      -0.00304325
H       11.28156050       9.99785580      15.47909265      -0.00200215      -0.00154706       0.00111804
H       11.30579344      11.75153328      15.46389044      -0.00076337      -0.00003464       0.00020329
H        9.95843743      10.88651350      14.71488894      -0.00122942       0.00017310      -0.00249906
C       11.18275155      10.85618119      12.33921361       0.00081758      -0.00102743      -0.00007761
C       11.77341179      10.85088747      13.56762594       0.00004395       0.00171193       0.00068436
C       13.19995296      10.82199517      13.50216857       0.00016946      -0.00003021       0.00107491
C       13.31839916      10.80410462      11.09428528       0.00142474       0.00237910      -0.00043893
C       11.03556188      10.87301845      14.87645364      -0.00135394      -0.00108338       0.00140807
N       11.89730675      10.83500998      11.17515022       0.00146124      -0.00301543       0.00054387
N       13.89219985      10.79869514      12.34163319       0.00108051       0.00098868       0.00034905
O       14.08170096      10.81274828      14.43529755      -0.00000452       0.00384287       0.00111891
O       13.88201213      10.78597866      10.02140183      -0.00185238      -0.00173254      -0.00232396
15
Lattice="24.897750096431743 0.0 0.0 0.0 21.74912624515586 0.0 0.0 0.0 25.455929653561725" Properties=species:S:1:pos:R:3:forces:R:3 =T label=11 uncertainty=0.011160201693402698 iteration=117 energy=-2315.3956326677358 pbc="T T T"
H       11.41343538      10.84040356      10.28041883      -0.15993098      -0.00351875      -0.08371251
H       14.80273396      10.79015630      13.45109770       0.09290839       0.02704322       2.17620038
H       10.10563965      10.87793609      12.22439242      -0.03055605      -0.00554290       0.00600686
H       11.28234957       9.99632204      15.47922376       0.01015830      -0.02533927       0.00221310
H       11.30637619      11.75152337      15.46364772       0.00874437      -0.00153219      -0.00267139
H        9.96067340      10.88708286      14.71429717       0.03357858       0.00856180      -0.01243520
C       11.18054182      10.85556556      12.33545220      -0.03336931      -0.01177551      -0.05886897
C       11.77852275      10.85088851      13.56653158       0.07953231       0.00140299      -0.01682439
C       13.20140050      10.82135474      13.46388382       0.02261559      -0.00775943      -0.59336320
C       13.30710320      10.80461458      11.08541780      -0.17394657       0.00971033      -0.13778702
C       11.03848252      10.87368317      14.87820979       0.04384555       0.00914155       0.02789205
N       11.88575894      10.83495553      11.17063315      -0.17823243      -0.00520893      -0.07023949
N       13.87969281      10.79895688      12.31245532      -0.19365773       0.00596838      -0.45250828
O       14.11945764      10.81237158      14.39663363       0.58626286       0.00207653      -0.59923219
O       13.87467938      10.78587144      10.01164214      -0.11441817      -0.00470434      -0.15282664
15
Lattice="24.897750096431743 0.0 0.0 0.0 21.74912624515586 0.0 0.0 0.0 25.455929653561725" Properties=species:S:1:pos:R:3:forces:R:3 =T label=12 uncertainty=0.013356293267654131 iteration=117 energy=-2315.820274049437 pbc="T T T"
H       11.39825037      10.84041998      10.27370776      -0.22976326      -0.00427564      -0.10208672
H       14.82838323      10.79077290      13.59333519       0.38882978       0.01720009       2.15684860
H       10.10172423      10.87764401      12.22628970      -0.05883697      -0.00885788       0.02878142
H       11.28525127       9.99569011      15.47809758       0.04214807      -0.01082465      -0.01755688
H       11.30903492      11.75150544      15.46219913       0.04005473      -0.00186656      -0.02064184
H        9.96541856      10.88707962      14.71230238       0.07117870      -0.00060738      -0.03328148
C       11.17723179      10.85557955      12.33217035      -0.04926388      -0.00207458      -0.05018634
C       11.78665510      10.85055947      13.56039282       0.12357682      -0.00423782      -0.09320626
C       13.20725593      10.82135589      13.42551376       0.08887916       0.00302090      -0.58088329
C       13.28994229      10.80498281      11.07201957      -0.25913104       0.00682402      -0.20277432
C       11.04548101      10.87371028      14.87543192       0.10477443      -0.00044001      -0.04225863
N       11.87150691      10.83492726      11.16127372      -0.21553429      -0.00450336      -0.14219834
N       13.87422492      10.79908450      12.28205988      -0.08281003       0.00372507      -0.46017659
O       14.13714341      10.81220820      14.37676784       0.26829423       0.00567189      -0.30033636
O       13.86025889      10.78637606       9.99783852      -0.21839554       0.00445346      -0.20951221
15
Lattice="24.897750096431743 0.0 0.0 0.0 21.74912624515586 0.0 0.0 0.0 25.455929653561725" Properties=species:S:1:pos:R:3:forces:R:3 =T label=13 uncertainty=0.012604315864945011 iteration=117 energy=-2316.1333154257463 pbc="T T T"
H       11.37590473      10.84116528      10.26669417      -0.21994998       0.00686112      -0.06898814
H       14.87411860      10.78934824      13.72666341       0.45051652      -0.01298444       1.31420126
H       10.09733560      10.87785371      12.23250224      -0.04271388       0.00151223       0.06186281
H       11.29154507       9.99686222      15.47358980       0.06076340       0.01121411      -0.04440351
H       11.31530706      11.75177630      15.45774206       0.06092142       0.00286899      -0.04365098
H        9.97640188      10.88623166      14.70577532       0.10777238      -0.00857148      -0.06596857
C       11.17283509      10.85626980      12.32807223      -0.04271220       0.00646159      -0.04040814
C       11.79851628      10.85029225      13.54738185       0.11716119      -0.00232059      -0.12805924
C       13.22099951      10.82091192      13.39511822       0.13561875      -0.00421076      -0.29892628
C       13.26820187      10.80542264      11.05382144      -0.21365640       0.00567234      -0.17898389
C       11.05682169      10.87257211      14.86508856       0.11110827      -0.01151001      -0.10174780
N       11.85504223      10.83547290      11.15058877      -0.16183323       0.00420921      -0.10520705
N       13.87847942      10.79886156      12.25519094       0.04235709      -0.00224597      -0.26408728
O       14.12437874      10.81140959      14.38280238      -0.12567315      -0.00664309       0.06021600
O       13.83419375      10.78797779       9.97689724      -0.25729625       0.01482125      -0.20658770
15
Lattice="24.897750096431743 0.0 0.0 0.0 21.74912624515586 0.0 0.0 0.0 25.455929653561725" Properties=species:S:1:pos:R:3:forces:R:3 =T label=14 uncertainty=0.011291145624409344 iteration=117 energy=-2316.3415199201886 pbc="T T T"
H       11.35045715      10.84359576      10.26111719      -0.16676994       0.01671515      -0.03649432
H       14.91353472      10.78522514      13.85588416       0.25867329      -0.02820312       0.85028520
H       10.09219319      10.87964032      12.24322203      -0.03357799       0.01241973       0.06999203
H       11.30145146       9.99800912      15.46522367       0.06442984       0.00776675      -0.05452866
H       11.32463226      11.75310172      15.44925949       0.06067313       0.00901085      -0.05565806
H        9.99160560      10.88537446      14.69450861       0.09963804      -0.00559219      -0.07461205
C       11.16828426      10.85732269      12.32357239      -0.02970337       0.00724692      -0.02956318
C       11.80999866      10.85019507      13.53167407       0.07547068      -0.00049961      -0.10307525
C       13.23845722      10.81899813      13.37262550       0.11482100      -0.01325504      -0.14742162
C       13.25137888      10.80632704      11.03510562      -0.11014901       0.00662526      -0.12270107
C       11.07162787      10.87122293      14.85314636       0.09696442      -0.00898084      -0.07827133
N       11.84064784      10.83684291      11.14083037      -0.09418377       0.00899228      -0.06393403
N       13.88755140      10.79790433      12.23490460       0.06013773      -0.00676238      -0.13275566
O       14.09781139      10.80851420      14.40189049      -0.17501832      -0.02002617       0.12631050
O       13.80121424      10.79033243       9.95120969      -0.21706340       0.01555864      -0.16885125
15
Lattice="24.897750096431743 0.0 0.0 0.0 21.74912624515586 0.0 0.0 0.0 25.455929653561725" Properties=species:S:1:pos:R:3:forces:R:3 =T label=15 uncertainty=0.010928850477996402 iteration=117 energy=-2316.4729305265996 pbc="T T T"
H       11.32741762      10.84564546      10.25531366      -0.08679859       0.00782072      -0.02186435
H       14.93098715      10.78215280      13.98545677       0.06578246      -0.01167113       0.49126356
H       10.08518556      10.88103588      12.25327902      -0.02641238       0.00536314       0.03769559
H       11.32078306       9.99816947      15.45159844       0.07264687       0.00088848      -0.05125603
H       11.34335658      11.75278879      15.43502479       0.07046889      -0.00140555      -0.05355628
H       10.01138204      10.88482448      14.68196775       0.07465066      -0.00210951      -0.04784296
C       11.16399157      10.85790205      12.31965906      -0.01615422       0.00226378      -0.01480765
C       11.81970080      10.84980745      13.51682541       0.03658344      -0.00148657      -0.05608422
C       13.25146475      10.81770627      13.35326229       0.04914662      -0.00490449      -0.07288075
C       13.23965279      10.80721585      11.01754114      -0.04408658       0.00342060      -0.06610928
C       11.09163041      10.87102433      14.84219262       0.07541001      -0.00075579      -0.04147740
N       11.82686612      10.83791413      11.13169752      -0.05187484       0.00394354      -0.03442984
N       13.89780997      10.79722137      12.21763153       0.03898348      -0.00272352      -0.06484498
O       14.06186303      10.80684233      14.42483262      -0.13644835      -0.00638652       0.08747272
O       13.76949485      10.79252993       9.92425430      -0.11978297       0.00824586      -0.10164659
15
Lattice="24.897750096431743 0.0 0.0 0.0 21.74912624515586 0.0 0.0 0.0 25.455929653561725" Properties=species:S:1:pos:R:3:forces:R:3 =T label=16 uncertainty=0.010805802575845918 iteration=117 energy=-2316.539086169713 pbc="T T T"
H       11.30632851      10.84601331      10.24476870      -0.03159045       0.00071219      -0.01587058
H       14.92698125      10.78292770      14.10180736      -0.00644084       0.00091454       0.17750894